LAMMPS data file via write_data, version 29 Oct 2020, timestep = 278716

4264 atoms
18 atom types
5957 bonds
18 bond types
11152 angles
39 angle types
20956 dihedrals
62 dihedral types
3424 impropers
9 improper types

18.444664981126934 67.55533701885717 xlo xhi
-34.162743041840244 6.562744041840265 ylo yhi
2.1979143793654163 11.60208562063464 zlo zhi

Masses

1 14.0067
2 12.011
3 14.0067
4 15.9994
5 1.008
6 1.008
7 15.9994
8 12.011
9 12.011
10 1.008
11 12.011
12 1.008
13 12.011
14 12.011
15 14.0067
16 15.9994
17 14.0067
18 12.011


Bond Coeffs # harmonic

1 1365.78 1.155
2 398.26 1.093
3 1024.04 1.2
4 500.95 1.374
5 362.01 1.1
6 362.01 1.1
7 509.51 1.359
8 591.76 0.965
9 517.41 1.528
10 497.83 1.459
11 362.01 1.1
12 705.27 1.398
13 362.01 1.1
14 705.27 1.398
15 634.85 1.335
16 398.26 1.093
17 634.85 1.335
18 867.4 1.238

Angle Coeffs # harmonic

1 50 180
2 50 104.51
3 50 109.471
4 50 109.471
5 50 109.471
6 50 120
7 50 120
8 50 120
9 50 120
10 50 120
11 50 120
12 50 120
13 50 120
14 50 109.471
15 50 109.471
16 50 120
17 50 109.471
18 50 109.471
19 50 109.471
20 50 120
21 50 109.471
22 50 109.471
23 50 120
24 50 109.471
25 50 109.471
26 50 109.471
27 50 120
28 50 106.7
29 50 109.471
30 50 109.471
31 50 109.471
32 50 120
33 50 109.471
34 50 109.471
35 50 106.7
36 50 120
37 50 120
38 50 120
39 50 120

Dihedral Coeffs # harmonic

1 0 1 1
2 0 1 1
3 1 1 3
4 1 1 3
5 1 1 3
6 0.5 -1 6
7 12.5 -1 2
8 12.5 -1 2
9 0.5 -1 6
10 0.5 -1 6
11 0.5 -1 6
12 12.5 -1 2
13 12.5 -1 2
14 1 1 3
15 1 1 3
16 1 1 3
17 1 1 3
18 12.5 -1 2
19 12.5 -1 2
20 12.5 -1 2
21 0.5 -1 6
22 0.5 -1 6
23 12.5 -1 2
24 12.5 -1 2
25 12.5 -1 2
26 1 1 3
27 1 1 3
28 1 1 3
29 12.5 -1 2
30 12.5 -1 2
31 0.5 -1 6
32 0.5 -1 6
33 12.5 -1 2
34 1 1 3
35 0.5 -1 6
36 0.5 -1 6
37 1 1 3
38 1 1 3
39 1 1 3
40 1 1 3
41 1 1 3
42 1 1 3
43 1 1 3
44 0.5 -1 6
45 0.5 -1 6
46 0.5 -1 6
47 1 1 3
48 0.5 -1 6
49 0.5 -1 6
50 1 1 3
51 1 1 3
52 1 -1 2
53 0.5 -1 6
54 0.5 -1 6
55 0.5 -1 6
56 12.5 -1 2
57 12.5 -1 2
58 12.5 -1 2
59 12.5 -1 2
60 12.5 -1 2
61 12.5 -1 2
62 12.5 -1 2

Improper Coeffs # umbrella

1 20 0
2 20 0
3 20 0
4 20 0
5 20 0
6 20 0
7 20 0
8 20 0
9 20 0

Atoms # full

7466 723 14 0.04 22.62971884444535 -28.54113407819182 5.173640813886831 0 -5 -9
4106 398 13 0.02 27.786479416449314 -30.921001334145394 11.444538873036043 0 -3 -7
7468 723 13 0.02 23.275986103768695 -29.536656152298505 4.798155075251887 0 -5 -9
115 7 13 0.02 26.70396279412393 -28.402783716875852 7.296820262030124 0 -4 -10
1270 122 13 0.02 24.590909039312514 -29.31135888111163 4.469501346487855 0 -4 -9
5115 495 13 0.02 22.499286936268806 -28.58695415699741 2.3585907954149885 0 -6 -9
7379 715 13 0.02 23.615290611521715 -27.488039525454347 9.559319932763794 1 -6 -10
8767 847 13 0.02 25.390365607451795 -28.160896524506352 7.004224315798071 0 -5 -9
1282 122 13 0.02 24.379296630102203 -30.746694593346326 10.681523733606099 0 -4 -10
5120 496 13 0.02 22.254040310917198 -29.58220494959217 10.856349850530048 0 -6 -10
6431 622 15 -0.2367 27.778515656177607 -28.178458128127176 9.621475258759128 0 -2 -2
8758 846 14 0.04 24.3283771440316 -29.08734345092394 6.611140199100783 0 -5 -9
2657 257 13 0.02 23.767573387759278 -30.522261318896867 8.274461575206374 0 -6 -10
1276 122 13 0.02 24.25656998146918 -29.78563518322024 2.9559913349007187 0 -4 -9
7471 723 13 0.02 22.18974620841971 -30.077499110154605 4.417142221048774 0 -5 -9
1285 123 13 0.02 26.21900947438211 -30.85256982684775 9.301971798279794 0 -4 -10
7402 718 13 0.02 20.449022215486416 -33.06885663762146 7.278181690532817 1 -6 -10
7477 723 13 0.02 22.47481379325004 -31.272431069406803 2.684323539736473 0 -5 -9
108 6 13 0.02 25.71865466349187 -30.254542787419314 6.477257913836325 0 -4 -10
2655 257 13 0.02 24.982984569154336 -29.68216818187035 8.294687408823435 0 -6 -10
2650 256 13 0.02 25.090522385188915 -28.682733332719756 9.091166583268253 0 -6 -10
12169 1181 15 -0.2367 22.895687162852482 -29.17371582235278 7.340381074443296 1 -5 -9
7395 717 13 0.02 21.31765468010338 -32.32676217139714 8.47896747229226 1 -6 -10
113 7 13 0.02 26.947376668933412 -27.394388227799777 8.183746190589819 0 -4 -10
2662 258 13 0.02 23.273952964905792 -31.364963159457783 7.206212039595829 0 -6 -10
6447 623 13 0.02 27.155871817563686 -32.171498464672645 5.85459294472134 0 -2 -2
10272 996 13 0.02 30.182916826881364 -31.894252760279716 2.902564860455362 0 -3 -5
7450 722 13 0.02 24.244247666167084 -24.750160551066507 3.4662840470724627 0 -5 -9
6432 622 13 0.02 29.097239070842082 -28.9073875329328 7.687567690561658 0 -2 -2
7696 744 13 0.02 26.144371542912467 -29.5357075499607 10.829301375482672 0 -3 -6
122 8 13 0.02 26.77733516481865 -26.38044857744357 7.445055152818143 0 -4 -10
7393 717 13 0.02 21.77216740358711 -31.332069827750352 9.225382092618714 1 -6 -10
7486 723 13 0.02 23.22450362816718 -32.65121832544746 9.6081888386951 0 -5 -10
2669 259 13 0.02 22.74711963864438 -32.90696277234583 6.433459725242523 0 -6 -10
12173 1181 13 0.02 22.338158989418293 -29.706726025071802 6.86409102548555 1 -5 -9
7474 723 13 0.02 23.025609814109647 -30.323093568510743 3.3497624915497006 0 -5 -9
7480 723 13 0.02 23.355723237028474 -31.224011303774564 11.202460619474854 0 -5 -10
12174 1181 14 0.04 21.180805616178564 -29.213939096324957 6.716844620910221 1 -5 -9
7462 722 13 0.02 23.58012189515424 -27.8236582798072 4.946378287959873 0 -5 -9
1256 121 13 0.02 26.006598233475327 -25.62363133073905 3.7311701634694217 0 -4 -9
1267 122 13 0.02 25.65651440946646 -28.92648578652609 5.1155729810465465 0 -4 -9
5113 495 13 0.02 22.016476519533462 -27.76122117110272 10.767392382869621 0 -6 -10
2648 256 13 0.02 25.929574127423848 -27.618747468938427 8.935644230702037 0 -6 -10
7460 722 14 0.04 23.076491567599554 -26.764269090701287 4.980682213052514 0 -5 -9
1273 122 13 0.02 25.343150172260806 -29.33191511387983 3.4493486943176404 0 -4 -9
1264 122 13 0.02 24.867803041554268 -27.982246043081613 4.87595579108897 0 -4 -9
10179 984 14 0.04 28.417774906829976 -25.27011797502036 3.1773711921960093 0 -3 -5
1262 122 13 0.02 25.80201610154817 -27.211855852744232 4.761557650474933 0 -4 -9
5108 494 13 0.02 22.877653213602475 -26.66897183696777 10.808119962535661 0 -6 -10
5218 503 14 0.04 29.60364104694291 -33.585776744285006 7.50411757778494 0 -2 -2
2629 253 13 0.02 24.016336920067236 -26.741088938368037 11.455015330365109 0 -6 -10
2634 254 13 0.02 24.221354042139144 -27.873377677511105 10.781604864280313 0 -6 -10
7400 718 13 0.02 19.97797771979202 -32.9073613343601 8.69276823379554 1 -6 -10
12166 1181 13 0.02 23.027346176034488 -27.9336464435636 7.626926625745667 1 -5 -9
7484 723 13 0.02 22.77511753840058 -32.21946803264396 10.694700168353613 0 -5 -10
120 8 13 0.02 28.03918485823325 -25.76957883081337 7.631055714926345 0 -4 -10
4113 399 13 0.02 26.909465987191766 -32.774958075507534 3.3153193586985474 0 -3 -6
2 1 13 0.02 25.81642168436642 -32.21391100998337 5.604028541802016 0 -4 -10
101 5 13 0.02 25.261907169828767 -31.34855849249212 4.536985471973568 0 -4 -10
7672 743 13 0.02 26.890232218849476 -25.331206769190608 4.609873654770727 0 -3 -5
5127 497 13 0.02 20.85636943427926 -31.417373497573724 9.993344223355583 0 -6 -10
6436 623 14 0.04 28.096130434573066 -29.6251336057319 7.935485763257526 0 -2 -2
5106 494 13 0.02 22.344500021056554 -25.761314607599513 9.883518139546489 0 -6 -10
1258 121 13 0.02 25.21149252102254 -26.409045203327302 4.129453278911291 0 -4 -9
1252 121 13 0.02 25.423343838584856 -24.989717600944783 2.8848934260497074 0 -4 -9
4104 398 13 0.02 28.873241715528636 -30.17414361343609 11.247090324268234 0 -3 -7
7456 722 13 0.02 23.981191613348617 -26.140704680106865 4.459822399386936 0 -5 -9
7386 716 13 0.02 23.01450825943231 -29.61807035357167 9.890097719123288 1 -6 -10
7698 744 13 0.02 26.567922869730968 -30.709726027859716 11.295243875043802 0 -3 -6
8654 841 13 0.02 22.666921423906466 -31.58428752796155 3.8867611351582827 0 -5 -9
2627 253 14 0.04 24.5637992142049 -25.664997785475276 10.639148177505986 0 -6 -10
6441 623 13 0.02 27.397420452138864 -30.70906513316111 5.849081570561596 0 -2 -2
7453 722 13 0.02 23.3727488897027 -25.050855627906223 4.373766294818253 0 -5 -9
2643 255 13 0.02 25.384842080630182 -26.37323347622247 8.9788202907331 0 -6 -10
3769 363 14 0.04 28.75205466371654 -31.118096395435852 8.839218683885065 0 -3 -6
7381 715 13 0.02 24.054878564937265 -28.752857817960663 9.780943257984193 1 -6 -10
7674 743 13 0.02 27.45098358232521 -26.15101700065508 5.3597236531798105 0 -3 -5
7388 716 13 0.02 22.837318024994556 -30.53662765389327 9.036583104596348 1 -6 -10
7367 713 11 -0.004194 24.080479506866887 -24.69739542281486 7.267697371002157 1 -6 -10
8492 822 13 0.02 19.223351649546814 -29.552077142089438 6.411973972483663 -1 -6 -9
106 6 13 0.02 26.050961999996204 -29.541349358263606 7.535555870298078 0 -4 -10
3776 363 14 0.04 27.34608453225541 -32.355187451563424 9.952605687841533 0 -3 -6
8760 846 13 0.02 24.59025506800155 -30.588636597200384 6.608815642440892 0 -5 -9
1287 123 15 -0.2367 26.816094520283364 -31.30595786400216 8.187352186894412 0 -4 -10
7692 743 13 0.02 27.099073108270602 -28.951621885165302 11.31901664860018 0 -3 -6
4099 397 13 0.02 28.381155873494727 -28.941038525538122 11.222291320077884 0 -3 -7
99 5 13 0.02 26.189883969754305 -30.78974055829909 5.435692017152403 0 -4 -10
10263 995 13 0.02 29.77948483630261 -30.316949640733114 3.677341159729047 0 -3 -5
1280 122 13 0.02 24.939212479168397 -29.8204892328149 11.274837757847427 0 -4 -10
12161 1181 13 0.02 22.260723432884785 -25.5570402429709 6.9037806111946525 1 -5 -9
6435 623 13 0.02 27.474526760193346 -29.245658212798663 9.09620312252533 0 -2 -2
6438 623 13 0.02 28.234819761794125 -30.22855273450434 6.764633407152916 0 -2 -2
12164 1181 13 0.02 21.440000427656443 -26.218753081765914 7.553956095231049 1 -5 -9
7701 744 14 0.04 25.739012080589518 -31.552757611957944 2.46209837895592 0 -3 -5
1286 123 14 0.04 24.96780063685011 -31.19246801695531 9.654036575871627 0 -4 -8
4078 394 13 0.02 28.415532607657628 -26.112394566124557 6.205338637081053 0 -3 -6
10256 994 13 0.02 30.404255201169853 -28.376789840960697 2.9438803014093895 0 -3 -5
10258 994 11 -0.004194 30.56675269703158 -29.244720682281454 4.039641016157058 0 -3 -5
7703 744 15 -0.2367 24.14753233207498 -33.04023997954617 11.515219428821906 0 -3 -6
4097 397 13 0.02 29.180780638823542 -28.532187686988227 2.8017036220639944 0 -3 -6
7690 743 13 0.02 26.61919819555083 -28.99116255879889 3.111148463689455 0 -3 -5
8774 848 13 0.02 25.630296824631067 -26.243946169363664 6.835167563025982 0 -5 -9
7677 743 13 0.02 27.01928185285307 -27.27806983048103 5.264036477640194 0 -3 -5
8656 841 2 -0.04283 21.386723893868314 -31.91002463763682 3.7992782103641276 0 -5 -9
6430 622 14 0.04 29.222696616466198 -27.790424038614336 8.184905667782985 0 -2 -2
10270 996 13 0.02 29.929921342333685 -30.677947856682774 2.400487236213027 0 -3 -5
7683 743 13 0.02 26.970549101202554 -28.78416494928801 5.105943318366932 0 -3 -5
8765 847 14 0.04 24.586352136576668 -27.07898794462242 6.704618639190021 0 -5 -9
7686 743 13 0.02 27.519015386015898 -28.78189405117318 4.030941210992401 0 -3 -5
4092 396 13 0.02 28.751527629624167 -28.435645700482077 4.0934307271650185 0 -3 -6
8772 848 14 0.04 25.120904369619865 -25.389728206699615 5.92872405026837 0 -5 -9
8753 845 13 0.02 23.94131130223062 -31.60040107973515 4.656279036248694 0 -5 -9
127 9 13 0.02 26.905309739438835 -24.86277774252456 8.69370013289102 0 -4 -10
4085 395 13 0.02 28.91612530013714 -27.455222369228675 6.072489860287472 0 -3 -6
4090 396 13 0.02 29.73302712531707 -27.88384330638218 5.121477967066665 0 -3 -8
129 9 13 0.02 27.16091250774735 -24.766946790568436 7.285354857431461 0 -4 -10
7680 743 13 0.02 27.764226477588917 -28.10613745541238 5.879089190346841 0 -3 -5
7704 744 13 0.02 25.717461907134894 -32.64637098523004 3.0695954532960923 0 -3 -5
4083 395 13 0.02 29.432471769648338 -26.262429290216033 5.277196176318898 0 -3 -6
2636 254 11 -0.004194 25.442208223705368 -27.53146088891296 11.381537868770309 0 -6 -10
5122 496 13 0.02 21.183683774816153 -30.43671460926951 10.766197468452638 0 -6 -10
7374 714 13 0.02 24.135444335216143 -26.571142438840774 8.584180984160762 1 -6 -10
4111 399 13 0.02 27.89892118802907 -32.0610187029184 2.723083785843699 0 -3 -6
5101 493 13 0.02 22.75985780260691 -24.73493989989158 9.124398599246396 0 -6 -10
7372 714 13 0.02 23.361834943942178 -25.834959490448686 7.513387237457086 1 -6 -10
6426 622 13 0.02 30.320057268777784 -27.50183554267567 7.613709853952249 0 -2 -2
2641 255 13 0.02 26.01345969556178 -26.852182157231162 10.199181747626143 0 -6 -10
5136 498 11 -0.004194 21.158367052106712 -33.956023135743536 11.366975099701653 0 -6 -10
8751 845 13 0.02 23.776054399391587 -31.36128250394213 5.999797712400486 0 -5 -9
10182 984 13 0.02 27.946389811553633 -26.53110189867304 3.475504765469393 0 -3 -5
10277 997 13 0.02 28.993316832804386 -32.452667125928706 2.982761263651594 0 -3 -5
2664 258 13 0.02 22.283769511819273 -32.24183519195525 7.536039455360052 0 -6 -10
3763 363 14 0.04 29.605974351103395 -29.095373430636506 9.541560288621307 0 -3 -6
12167 1181 14 0.04 21.863177403231425 -27.403647174471963 7.586090377708022 1 -5 -9
3742 362 13 0.02 27.728125370203234 -25.274748837552483 10.640227213518896 0 -3 -6
3772 363 13 0.02 28.604271228939552 -32.05640013287685 9.721019655774215 0 -3 -6
3745 362 13 0.02 26.90861422441884 -26.242102627514374 10.838061001511122 0 -3 -6
333 29 13 0.04 30.557442171033596 -32.83746147261412 5.172323645042832 0 -2 -6
7700 744 13 0.02 25.246848601248114 -32.428284347473465 11.07211338877773 0 -3 -6
10176 984 13 0.02 28.637820086824505 -24.82498691199345 11.377534514139109 0 -3 -4
3758 363 13 0.02 30.092687039142156 -27.126114787896906 10.143589275171903 0 -3 -6
1288 123 13 0.02 24.310476738482457 -32.16538887174499 9.184697338313438 0 -4 -10
3748 362 13 0.02 27.204522487058828 -26.842345351873536 2.5284554394113425 0 -3 -5
6423 622 13 0.02 30.028299221132446 -26.319075478434236 7.655102147908612 0 -2 -2
3754 362 13 0.02 29.490784798529674 -26.71681292771832 11.176921030992789 0 -3 -6
3752 362 14 0.04 28.201895075129126 -26.981953641726044 11.047176898230019 0 -3 -4
4837 465 13 0.02 19.16603556743976 -25.909012730662692 9.964081921813689 1 -6 -10
1300 123 13 0.02 26.254044720607006 -33.385462512877375 6.946597494539496 0 -4 -10
3739 362 13 0.02 27.866437911914648 -24.81615498002642 9.529421540598875 0 -3 -6
5134 498 13 0.02 21.981663951408738 -32.90723775816201 11.407860396576154 0 -6 -10
7490 724 13 0.02 22.525947048654768 -33.69943101258918 9.533325223929037 0 -5 -10
6429 622 13 0.02 28.56414984738451 -27.163596202298372 9.095269312124048 0 -2 -2
2671 259 13 0.02 21.586274549203488 -33.504568679095584 6.768286311675954 0 -6 -10
7 1 13 0.02 23.95833542421786 -33.3484252143262 6.757969323636701 0 -4 -10
1294 123 13 0.02 25.20266972804558 -33.79038967917975 9.206056699796848 0 -4 -10
1291 123 14 0.04 25.15473388929139 -32.64251694345186 8.471610535004766 0 -4 -10
1290 123 13 0.02 25.9135169596543 -31.6106788152975 7.957768905992124 0 -4 -10
8659 841 14 0.04 22.185353186974595 -32.639511060200306 4.477409437857984 0 -5 -9
4 1 13 0.02 25.13829923347189 -32.96175205796145 6.4112339377394205 0 -4 -10
6450 623 13 0.02 27.905223518163144 -32.61926860836441 6.906541573157807 0 -2 -2
6444 623 13 0.02 27.56429449713399 -31.429535949464295 4.826409233307024 0 -2 -2
8476 822 13 0.02 19.223802700883713 -26.141413964021957 5.757893217011736 1 -6 -9
10186 984 13 0.02 29.154122211963962 -26.38811143235115 3.9079174569267727 0 -3 -5
10188 984 13 0.02 30.045815802361513 -26.318257966536557 2.928254224078768 0 -3 -5
5214 503 13 0.02 29.096821617675676 -32.67219859650358 6.740102477143972 0 -2 -2
2348 224 13 0.02 21.11187334600922 -27.129501991801263 9.493118461498192 -1 -6 -10
10178 984 13 0.02 29.331198892384734 -24.57691449974329 3.8731775112188824 0 -3 -5
5202 503 13 0.02 29.29594216768075 -30.099569554451648 6.030284600525463 0 -2 -2
5208 503 13 0.02 28.79711235152212 -31.5720509249939 4.756180892008445 0 -2 -2
5196 502 13 0.02 30.231946947364246 -29.533936305961088 7.521277248294106 0 -2 -2
4076 394 13 0.02 28.57037569031815 -24.890229420116597 6.773211698716559 0 -3 -6
8480 822 13 0.02 20.212254566672996 -26.071711462914173 7.555446107929319 3 -6 -9
5129 497 13 0.02 20.856309615737835 -32.253644727518285 11.157669321365804 0 -6 -10
7465 723 13 0.02 21.402343419168798 -28.161935400420518 5.388144349746424 0 -5 -9
7459 722 13 0.02 21.864516021158202 -26.526530744737194 5.217699604913792 0 -5 -9
12156 1181 13 0.02 22.231050510163406 -24.564902905328257 4.876341611334448 1 -5 -9
4740 461 13 0.02 19.646583485834498 -28.029165455684986 10.650835509330957 1 -6 -10
9865 957 13 0.02 18.753525412606976 -28.079464336007554 11.45311637355685 1 -6 -11
5200 503 14 0.04 30.457666864981277 -29.719278638405225 6.2461518454826255 0 -2 -2
6307 609 13 0.02 30.106416487719148 -24.266668537380987 7.446386225119368 0 -3 -6
8468 821 13 0.02 19.042736638613704 -24.40706711103925 3.6670069190833594 1 -6 -9
5205 503 13 0.02 29.230720512341147 -30.3717323931143 4.8115240291725225 0 -2 -2
3766 363 13 0.02 29.69546655264659 -30.35289357540669 9.293315527157892 0 -3 -6
3760 363 13 0.02 30.46429178968378 -28.3760391070279 10.180861813025391 0 -3 -6
9964 964 2 -0.04283 19.158784252784177 -28.754509145851554 4.152486969255426 0 -5 -9
4742 461 13 0.02 19.91378022278174 -29.016611060448536 10.008402760270611 1 -6 -10
9943 963 14 0.04 18.934129335330258 -24.17264671346289 10.721380839511834 0 -5 -10
9952 963 2 -0.04283 20.31565278208067 -26.434109707583595 2.668766809590282 0 -5 -9
10173 984 14 0.04 29.659274201663163 -24.06760219930154 10.946400469863084 0 -3 -6
8781 849 13 0.02 26.08305519706141 -24.555109639600346 6.514233191813132 0 -5 -9
2676 260 13 0.02 23.95181820867865 -24.974337476179745 9.493206803507935 0 -6 -10
9946 963 13 0.02 19.451307032777166 -24.578389058877452 2.4525092547498963 0 -5 -11
6454 623 13 0.02 27.42733180676658 -33.176942866446446 8.014007909348646 0 -2 -2
10279 997 13 0.02 29.456852288791346 -33.36175581522903 3.780828664399001 0 -3 -5
5143 499 11 -0.004194 19.9558713083463 -34.07935333743466 10.755556616689695 0 -6 -10
1297 123 13 0.02 26.168179568558102 -33.387355927835074 8.303807246862629 0 -4 -10
4839 465 13 0.02 20.03999844609512 -26.941891118707233 9.999027042751607 -1 -6 -10
12180 1182 13 0.02 20.88468386142815 -30.35152755280601 4.8502799035582695 1 -5 -9
12170 1181 13 0.02 20.93975608618464 -28.235536731642956 7.494666851172186 1 -5 -9
12158 1181 13 0.02 21.572001666337314 -24.905593540662508 5.95822082194918 1 -5 -9
2358 224 14 0.04 20.796885250464506 -29.944903060434868 8.39715083812492 1 -6 -10
8486 822 13 0.02 19.709678607270035 -28.103633511383617 7.707696636587668 1 -6 -9
11309 1097 13 0.02 21.44776830446842 -28.930830955490883 2.892416133161819 0 -6 -11
7461 722 15 -0.2367 21.0062083447239 -27.35657522001308 5.56044353133923 0 -5 -9
11314 1098 13 0.02 20.307853244038416 -29.761130884279808 2.7939724921291615 0 -6 -9
9956 963 13 0.02 20.486318063220548 -25.70247959116966 3.687140365864139 0 -5 -9
8483 822 14 0.04 19.314095467036935 -26.91312932289359 7.915037890249181 1 -6 -9
11316 1098 13 0.02 20.11032754939061 -30.683004057795884 11.33332700661223 0 -6 -8
9962 964 13 0.02 20.111214715025483 -27.867903749156596 3.953788145796311 -2 -5 -9
11323 1099 13 0.02 19.765104180149528 -32.341205794637325 2.378826758919094 0 -6 -9
7706 744 13 0.02 23.552873670401652 -33.33207001557529 3.066120060233716 0 -3 -5
7407 719 14 0.04 19.266563080953254 -33.447832832353654 7.732125052215553 -1 -6 -10
11272 1092 13 0.02 19.088805171655252 -32.89837653922891 3.4091116773361176 0 -5 -9
11302 1096 11 -0.004194 22.257018468899023 -26.681280423427534 3.0762253627699088 0 -6 -7
11295 1095 13 0.02 21.592598391319097 -24.03059022336855 2.8560693080981316 0 -6 -9
5211 503 13 0.04 29.53616700108194 -32.18230733532319 5.656565861109087 0 -2 -2
4748 461 13 0.02 18.67239563228637 -30.566980433499342 9.075165645569038 1 -6 -10
3782 364 13 0.02 26.3277018128154 -34.093039398373435 10.795932108750709 0 -3 -9
4062 392 13 0.02 27.259142841323218 -33.60043874682002 4.2796299236176 0 -2 -6
8472 822 14 0.04 19.21287352906531 -24.523235930695545 4.978636263829357 1 -6 -9
6190 601 13 0.02 29.689674011806915 -32.66738661612144 10.106114570565596 0 -3 -6
2351 224 13 0.02 21.81198610478787 -28.178138106568618 9.53619853430602 1 -6 -10
4846 466 13 0.02 19.309885064587608 -24.981229647087353 8.882362298750365 1 -6 -10
11307 1097 13 0.02 21.295315993280166 -27.770452509976707 3.4249463785888707 0 -6 -11
6193 601 13 0.02 29.975904975227877 -33.78030550407108 10.694067212551653 0 -3 -6
7710 744 13 0.02 24.771789898284606 -33.883787249555596 4.538150492138581 0 -3 -5
11321 1099 13 0.02 19.0958025357255 -31.649170963781426 10.92783974611304 0 -6 -10
2342 224 13 0.02 20.53648741807679 -24.898557657619182 9.299329003211733 -1 -6 -10
1249 121 13 0.02 26.299242609752717 -24.112438175862213 2.714294587365947 0 -4 -9
2354 224 13 0.02 20.913867338605094 -29.0812163189501 9.321726040446721 1 -6 -10
12185 1182 14 0.04 19.238124753770823 -31.782024381522426 5.350089989472928 1 -5 -9
9958 963 2 -0.04283 19.740497751389093 -26.634229893407046 4.056087230437799 0 -5 -9
9967 964 13 0.02 19.237766519014396 -29.767780756980876 3.383594191889067 2 -5 -9
8662 841 13 0.02 21.45565742317488 -33.62977135766438 4.160296061393053 0 -5 -9
11300 1096 13 0.02 21.680753695337692 -25.405526865283203 3.26065742089767 0 -6 -9
2675 260 14 0.04 24.062000696518595 -24.61309984401509 10.791329412244142 0 -6 -10
2469 240 14 0.04 19.311566563745007 -31.399978656712648 7.367605425097483 1 -6 -10
9949 963 14 0.04 20.407319934240086 -25.349969755487525 11.410310304856132 0 -5 -10
11274 1092 13 0.02 20.170033326148847 -33.65236998073339 3.791425276624583 0 -5 -9
8490 822 14 0.04 18.752337332507224 -28.99088385829615 7.430259204938356 1 -6 -9
2421 233 13 0.02 18.783573044671858 -32.9314722534676 9.486118810481642 1 -6 -10
8477 822 14 0.04 19.71561897818276 -25.372714284112362 6.692571061813629 1 -6 -9
10284 998 13 0.02 28.50381817469443 -33.85354606991417 4.537253041094155 0 -3 -5
7492 724 13 0.02 23.85038917094106 -34.06531608044184 9.669629375166123 0 -5 -10
7668 742 13 0.02 27.222861711026734 -24.212398479488257 4.728977897148127 0 -3 -5
12176 1181 13 0.02 20.417726942141545 -29.722712839940375 5.901095970004231 1 -5 -9
8482 822 13 0.02 19.03829386784585 -27.47287596470115 6.789130090810498 1 -6 -9
3778 363 13 0.02 27.49610473062579 -33.40967005508943 10.724161182024224 0 -5 -6
2468 240 13 0.02 20.59530251920503 -31.246533891612586 6.938805560828291 1 -6 -10
12184 1182 13 0.02 20.271925271027662 -32.486196366208844 5.437218564463469 1 -5 -9
8479 822 15 -0.2367 18.918487015057046 -27.404221590962592 5.67124704910798 1 -6 -9
12182 1182 13 0.02 19.69186323535553 -30.860125909499782 4.517343928324319 1 -5 -9
8474 822 13 0.02 20.256072260203272 -24.817573693493273 5.806949335403676 1 -6 -9
2674 260 13 0.02 22.9956629612155 -24.578114085256196 11.4600774775712 0 -6 -10
2360 224 13 0.02 19.674646134881776 -30.619238086548805 8.281865361691 -1 -6 -10
5220 503 13 0.02 28.9966597193453 -34.130739420059655 8.517724044063739 0 -2 -2
2345 224 13 0.02 21.202091061445707 -25.91480682046279 9.535448283486017 1 -6 -10
12187 1182 15 -0.2367 19.699248814127785 -33.61444430633272 5.729312528307621 1 -5 -9
6456 623 13 0.02 27.843131073064395 -33.902754344715795 8.966262208369553 0 -2 -2
7707 744 14 0.04 24.670267056033108 -33.13938400286649 3.5972768174931806 0 -3 -5
136 10 11 -0.004194 25.881660637515747 -24.55023557875296 9.531970800321233 0 -4 -10
12190 1182 13 0.02 18.606475059080445 -33.977963443645905 6.089183079083278 1 -5 -9
4745 461 13 0.02 18.935735034122285 -29.75244597144135 9.933573870472912 1 -6 -10
6196 601 13 0.02 28.711385052034935 -33.98784957092692 10.979512145494132 0 -3 -8
6184 601 13 0.02 30.704569356498475 -30.669705949684673 9.95816391729649 0 -3 -6
6309 609 13 0.02 30.67309865169585 -24.725956371587593 8.670463632797132 0 -3 -6
4064 392 13 0.02 26.09542332860674 -34.00723407337703 4.7550108152378865 0 -2 -6
6187 601 13 0.02 30.68702848963645 -31.89509261184273 10.278444323965223 0 -3 -6
4071 393 13 0.02 28.028676018103 -24.05259812406562 5.713838696558634 0 -3 -6
2340 224 13 0.02 21.26370678599754 -24.040759315110467 10.02895347655288 1 -6 -10
5511 533 13 0.02 30.522338072926566 -15.47547655911252 6.077694791959739 0 4 8
2334 223 13 0.02 20.9014744393318 -23.294671037897306 8.196095163619844 3 -6 -10
11286 1094 13 0.02 19.25171193773322 -22.059423748512934 10.344886990276038 0 -6 -10
4858 468 13 0.02 18.612017013098775 -21.49117976233144 5.989369302825081 3 -6 -10
7414 720 13 0.02 23.15453019853002 -22.821626527845567 5.480366391041561 -1 -6 -10
12253 1185 13 0.02 20.311050137755416 -22.948762257818824 4.6052761671778315 1 -5 -9
3982 383 13 0.02 28.10567744706321 -14.18902010343682 10.34125054793533 0 -3 -7
5025 484 15 -0.2367 19.186020568631974 -17.085904441825267 2.4153288458012896 0 -6 -10
2330 223 13 0.02 20.22283506545283 -22.785819889175684 7.102700804831276 1 -6 -10
171 15 13 0.02 23.272997268343616 -13.961930307041662 2.217911340718219 0 -5 -10
12262 1186 13 0.02 19.590690179410515 -22.457345906661555 3.5691725860314434 1 -5 -9
5022 484 13 0.02 19.568081731885183 -16.236169899632955 10.887708864416245 0 -6 -11
7629 741 14 0.04 25.899095928243465 -14.21622195718423 9.06681763428306 0 -3 -6
10168 984 13 0.02 30.507726178778523 -22.440954193283446 9.219557874468586 0 -3 -6
3823 367 11 -0.004194 25.671592607865268 -15.273346932533459 3.5297152011009616 0 -3 -6
11191 1083 13 0.02 20.86643517744024 -13.860904118171547 4.295646568653246 0 -6 -10
7529 727 13 0.02 22.02678163375896 -14.291143801622542 6.832333159989699 0 -5 -10
2297 222 13 0.02 19.412231005046863 -18.03949872605581 9.810662648628677 1 -6 -11
7265 703 13 0.02 20.746413237304157 -14.074118400739316 6.773244470153965 1 -6 -11
5002 483 13 0.02 18.679408709272813 -13.978060153738598 11.032317410895782 0 -6 -11
6323 611 11 -0.004194 29.955499836312256 -23.606147839281306 5.63843235633341 0 -3 -6
11288 1094 13 0.02 19.881957280063947 -22.577230514214936 2.200566803448322 -2 -6 -9
1242 121 13 0.02 26.735869720440512 -22.78153102249206 9.856170490137648 0 -4 -10
6342 614 13 0.02 29.217869441509812 -14.148842256275662 11.095694998252574 0 -4 -7
2336 223 13 0.02 20.58977947265195 -23.127840339125974 9.522968518179546 1 -6 -10
5008 483 13 0.02 19.48653500178839 -14.412977306491994 9.568322408467582 0 -6 -11
8809 853 13 0.02 24.432043937047744 -13.902517683012888 2.8446829410424246 0 -6 -9
2518 242 13 0.02 20.739501024303888 -14.175140752180589 10.115248028920377 0 -6 -11
10131 982 13 0.02 26.28860058945546 -13.985914373251 6.4176847958391035 0 -3 -6
2566 244 13 0.02 23.60151636035235 -23.421630539941305 10.590321360462374 0 -6 -10
7444 722 13 0.02 24.39331067316052 -23.26719016257986 3.261051322536268 0 -5 -9
2311 222 15 -0.2367 19.00751230353864 -19.27216450798308 4.8259520607742985 1 -6 -10
8816 854 13 0.02 23.320326036309666 -14.656609714687807 4.236675620722894 0 -6 -9
4853 467 13 0.02 19.6944084894585 -22.76767555084222 8.777991047055506 1 -6 -10
5146 500 13 0.02 20.470923265223544 -21.05486798328969 6.46724928184143 0 -6 -10
2282 221 13 0.02 18.730699990214525 -15.088159057050165 6.133710281983244 1 -6 -11
7666 742 13 0.02 26.644695124824967 -23.48454683420839 3.8392686651293517 0 -3 -5
7642 741 14 0.04 26.379681558902615 -17.399125503926197 7.875687277209752 0 -3 -6
2294 222 13 0.02 20.02332189461431 -17.616486857502732 8.780017579445481 1 -6 -11
2292 222 13 0.02 19.04054824856527 -16.96570209736559 8.348538895852275 1 -6 -11
1541 145 13 0.02 30.240301447799226 -13.929003101052592 9.52017519971365 0 1 4
5018 484 14 0.04 20.65475332232724 -15.867624199592123 9.34949039182076 0 -6 -11
2316 223 14 0.04 20.28198651062783 -20.783390939660226 4.172279146145533 3 -6 -10
5028 484 13 0.02 19.82428315759344 -17.703138249174593 3.188978112625304 0 -6 -10
7442 722 13 0.02 23.236334307041687 -22.683201406749397 3.2542528726437796 0 -5 -9
2309 222 13 0.02 18.65833690796653 -18.96250029487991 3.6438741053981096 1 -6 -10
5012 483 14 0.04 19.72354174734033 -14.995543023546606 8.464470632788412 0 -6 -11
2312 222 13 0.02 20.076788273888525 -20.375166067901173 2.953424075474652 1 -6 -10
3830 368 11 -0.004194 26.25513543823608 -14.015000069338202 3.9779903282835694 0 -3 -6
2288 221 13 0.02 19.321349299805476 -16.434843256533856 7.268606035495264 1 -6 -11
6321 611 13 0.02 29.600251424267487 -22.53196985732364 4.856980030312113 0 -3 -6
3728 361 13 0.02 27.853343154923905 -22.364511512007873 7.031259965150995 0 -3 -6
5023 484 14 0.04 20.804642791086856 -16.584173277424775 10.993505700596302 0 -6 -11
2306 222 13 0.02 20.430894656460524 -19.281385765610693 2.4015836986884365 1 -6 -10
5020 484 13 0.02 21.550164664905736 -16.37149741410429 10.074938710390738 0 -6 -11
2300 222 13 0.02 20.581482218061925 -18.540999074183862 9.977689289462818 1 -6 -13
1351 127 13 0.02 23.15625931751565 -17.85104630948683 6.341423092492746 0 -4 -10
3814 366 13 0.02 26.1660337986608 -16.194103530316553 2.754863677836802 0 -3 -6
2536 243 13 0.02 22.67410649229418 -17.734766878189706 11.273650340059346 0 -6 -11
282 24 13 0.02 27.94663448367488 -15.453515880636752 6.390125635927455 0 -3 -7
2533 243 14 0.04 23.38355309251604 -17.57010543026034 10.172974879235428 0 -6 -11
1342 126 13 0.04 23.24134947833608 -18.268676577303385 7.752983814286855 0 -4 -10
5014 483 13 0.02 21.03289237389638 -15.323378789654713 8.277499797622273 -2 -6 -11