LAMMPS data file via write_data, version 11 Aug 2017, timestep = 0

9540 atoms
18 atom types
10500 bonds
18 bond types
17160 angles
39 angle types
24720 dihedrals
62 dihedral types
1680 impropers
9 improper types

-4.1692953455528254e+000 9.0169297345542262e+001 xlo xhi
-5.2338319721770667e+001 2.4738320721770670e+001 ylo yhi
-2.1324184491482026e+000 1.5932418449148203e+001 zlo zhi

Masses

1 14.0067
2 12.011
3 14.0067
4 15.9994
5 1.008
6 1.008
7 15.9994
8 12.011
9 12.011
10 1.008
11 12.011
12 1.008
13 12.011
14 12.011
15 14.0067
16 15.9994
17 14.0067
18 12.011


Bond Coeffs # harmonic

1 1365.78 1.155
2 398.26 1.093
3 1024.04 1.2
4 500.95 1.374
5 362.01 1.1
6 362.01 1.1
7 509.51 1.359
8 591.76 0.965
9 517.41 1.528
10 497.83 1.459
11 362.01 1.1
12 705.27 1.398
13 362.01 1.1
14 705.27 1.398
15 634.85 1.335
16 398.26 1.093
17 634.85 1.335
18 867.4 1.238

Angle Coeffs # harmonic

1 50 180
2 50 104.51
3 50 109.471
4 50 109.471
5 50 109.471
6 50 120
7 50 120
8 50 120
9 50 120
10 50 120
11 50 120
12 50 120
13 50 120
14 50 109.471
15 50 109.471
16 50 120
17 50 109.471
18 50 109.471
19 50 109.471
20 50 120
21 50 109.471
22 50 109.471
23 50 120
24 50 109.471
25 50 109.471
26 50 109.471
27 50 120
28 50 106.7
29 50 109.471
30 50 109.471
31 50 109.471
32 50 120
33 50 109.471
34 50 109.471
35 50 106.7
36 50 120
37 50 120
38 50 120
39 50 120

Dihedral Coeffs # harmonic

1 0 1 1
2 0 1 1
3 1 1 3
4 1 1 3
5 1 1 3
6 0.5 -1 6
7 12.5 -1 2
8 12.5 -1 2
9 0.5 -1 6
10 0.5 -1 6
11 0.5 -1 6
12 12.5 -1 2
13 12.5 -1 2
14 1 1 3
15 1 1 3
16 1 1 3
17 1 1 3
18 12.5 -1 2
19 12.5 -1 2
20 12.5 -1 2
21 0.5 -1 6
22 0.5 -1 6
23 12.5 -1 2
24 12.5 -1 2
25 12.5 -1 2
26 1 1 3
27 1 1 3
28 1 1 3
29 12.5 -1 2
30 12.5 -1 2
31 0.5 -1 6
32 0.5 -1 6
33 12.5 -1 2
34 1 1 3
35 0.5 -1 6
36 0.5 -1 6
37 1 1 3
38 1 1 3
39 1 1 3
40 1 1 3
41 1 1 3
42 1 1 3
43 1 1 3
44 0.5 -1 6
45 0.5 -1 6
46 0.5 -1 6
47 1 1 3
48 0.5 -1 6
49 0.5 -1 6
50 1 1 3
51 1 1 3
52 1 -1 2
53 0.5 -1 6
54 0.5 -1 6
55 0.5 -1 6
56 12.5 -1 2
57 12.5 -1 2
58 12.5 -1 2
59 12.5 -1 2
60 12.5 -1 2
61 12.5 -1 2
62 12.5 -1 2

Improper Coeffs # umbrella

1 20 0
2 20 0
3 20 0
4 20 0
5 20 0
6 20 0
7 20 0
8 20 0
9 20 0

Atoms # full

116 7 12 3.2989999999999998e-002 8.2955025360773282e-001 -4.8060057672968760e+001 3.1182476136928159e+000 0 1 0
115 7 11 -4.1939999999999998e-003 1.7176777539125321e+000 -4.7743404795205770e+001 2.5586861482143326e+000 0 1 0
117 7 12 3.2989999999999998e-002 2.5371739353666589e+000 -4.7588109402894901e+001 3.2749504396430806e+000 0 1 0
106 6 9 8.4900000000000003e-002 2.1743612420697338e+000 -4.8885670667153555e+001 1.6162617888531277e+000 0 1 0
105 6 8 6.5579999999999999e-002 1.3964101287576818e+000 -4.9103404030266738e+001 3.9953221421141633e-001 0 1 0
9918 962 13 2.0000000000000000e-002 -3.6507300987826872e+000 -4.6009570350954540e+001 -1.4825160689198074e+000 0 1 1
9913 962 13 2.0000000000000000e-002 -3.4545854229347368e+000 -4.3655554294731608e+001 -1.6097993938793582e+000 0 1 1
9919 962 14 4.0000000000000001e-002 -2.6227774068211933e+000 -4.6146706511935989e+001 1.5634714270766855e+001 0 1 0
9914 962 14 4.0000000000000001e-002 -2.4415936748995635e+000 -4.3760424685237204e+001 1.5487637822466185e+001 0 1 0
2559 244 15 -2.3669999999999999e-001 1.0626797581247693e+000 -5.1357381790001952e+001 6.2809733513622685e+000 0 0 0
4998 483 13 2.0000000000000000e-002 -3.6177126870799032e+000 -3.9778010830513288e+001 9.5964902775605747e+000 0 0 0
2560 244 2 -4.1939999999999998e-003 3.7435681419041136e+000 -5.2118626137901671e+001 6.4869046860708126e+000 0 0 0
2556 244 13 2.0000000000000000e-002 2.0179004460279821e+000 -5.0428364640345926e+001 6.1382002162927307e+000 0 0 0
2557 244 9 8.4900000000000003e-002 3.3690415116989594e+000 -5.0814534347780146e+001 6.1169745313475348e+000 0 0 0
2554 244 2 -4.2830000000000000e-002 4.2793542931863389e+000 -4.9790591013723407e+001 6.4169585082353704e+000 0 0 0
9922 962 2 -4.2830000000000000e-002 -2.2055198997723489e+000 -4.7412921051532152e+001 1.5226077956295471e+001 0 1 0
2553 244 3 -3.2719999999999999e-001 1.6202440593336163e+000 -4.9166136174457463e+001 5.7262798909540891e+000 0 0 0
9916 962 2 -4.2830000000000000e-002 -2.0190035599599350e+000 -4.5022702236974268e+001 1.5066694419035091e+001 0 1 0
113 7 9 8.4900000000000003e-002 1.4402778614867064e+000 -4.6386054096307419e+001 1.8553411277195555e+000 0 1 0
112 7 8 6.5579999999999999e-002 2.9181246219357587e-001 -4.6573319264600521e+001 9.6753616773420548e-001 0 1 0
104 6 1 -1.9810000000000000e-001 8.0108438947262206e-001 -4.9298019079385746e+001 -5.7253965724433920e-001 0 1 0
111 7 1 -1.9810000000000000e-001 -6.0769059057706853e-001 -4.6743965401501598e+001 2.6457071479858840e-001 0 1 0
9925 962 9 8.4900000000000003e-002 -2.7897853648107791e+000 -4.8555004787880527e+001 1.5779447825076645e+001 0 3 0
1262 122 14 4.0000000000000001e-002 7.1693076454928377e+000 -5.0903279245993176e+001 -1.7504485745137419e+000 0 1 0
1264 122 2 -4.2830000000000000e-002 6.1319915255866730e+000 -5.1845098580867493e+001 -1.6759810485132063e+000 0 1 0
3875 375 1 -1.9810000000000000e-001 5.8392395725010013e+000 -4.9423423877360186e+001 2.1697701771306277e+000 0 0 0
3876 375 8 6.5579999999999999e-002 6.9398935866329010e+000 -4.9379562637364266e+001 2.5170962144342406e+000 0 0 0
3877 375 9 8.4900000000000003e-002 8.3392723255272685e+000 -4.9290276575368608e+001 2.9442981464219291e+000 0 0 0
123 8 12 3.2989999999999998e-002 4.5054590326596522e-001 -4.5313722691212845e+001 3.4832751069436045e+000 0 1 0
122 8 11 -4.1939999999999998e-003 1.2722783380283116e+000 -4.5138360879949055e+001 2.7698160316494098e+000 0 1 0
124 8 12 3.2989999999999998e-002 2.2084603329860184e+000 -4.5037152509809481e+001 3.3381682176438607e+000 0 1 0
120 8 9 8.4900000000000003e-002 1.0245585918897337e+000 -4.3789485968311567e+001 2.0366951751404798e+000 0 1 0
119 8 8 6.5579999999999999e-002 -2.6721876349223694e-001 -4.3873622343623175e+001 1.3547942955056969e+000 0 1 0
127 9 9 8.4900000000000003e-002 9.8918911980649571e-001 -4.1153870432573399e+001 2.1156945563344758e+000 0 1 0
130 9 12 3.2989999999999998e-002 1.8901384908683619e-001 -4.2537402770871090e+001 3.6073980935824870e+000 0 1 0
129 9 11 -4.1939999999999998e-003 1.0339930870852785e+000 -4.2496221964554380e+001 2.9013741037580374e+000 0 1 0
131 9 12 3.2989999999999998e-002 1.9687342892294535e+000 -4.2489316257023724e+001 3.4808287430240172e+000 0 1 0
126 9 8 6.5579999999999999e-002 -1.7062913278226960e-001 -4.1094523035658241e+001 1.2274438494127511e+000 0 1 0
137 10 12 3.2989999999999998e-002 -2.2355609647466745e-002 -3.9786619069793943e+001 3.4610387462456798e+000 0 1 0
125 9 1 -1.9810000000000000e-001 -1.0918442248157083e+000 -4.1024928592800492e+001 5.3563104089900027e-001 0 1 0
118 8 1 -1.9810000000000000e-001 -1.2974209163246033e+000 -4.3945025306232075e+001 8.3857525411722433e-001 0 1 0
138 10 12 3.2989999999999998e-002 1.7342312399743121e+000 -3.9930635947195164e+001 3.7364568438809385e+000 0 1 0
136 10 11 -4.1939999999999998e-003 9.5825505395583510e-001 -3.9853081729902129e+001 2.9625903671728122e+000 0 1 0
2551 244 14 4.0000000000000001e-002 3.8513803203862285e+000 -4.8458561619378081e+001 6.3149423281699919e+000 0 0 0
2547 244 15 -2.3669999999999999e-001 2.1087360212221569e+000 -4.6921579434308882e+001 5.8129699890246105e+000 0 0 0
2541 243 15 -2.3669999999999999e-001 2.4350967738329321e+000 -4.4592160123369815e+001 5.8892136414502003e+000 0 0 0
2550 244 13 2.0000000000000000e-002 2.5197112188793400e+000 -4.8192143730657577e+001 5.9472075375993363e+000 0 0 0
2548 244 2 -4.2830000000000000e-002 4.7261715407727625e+000 -4.7388369943409813e+001 6.5611801074981342e+000 0 0 0
2545 244 13 2.0000000000000000e-002 2.9193889741069849e+000 -4.5875796370510685e+001 6.0320864222798667e+000 0 0 0
2546 244 14 4.0000000000000001e-002 4.2529240862290196e+000 -4.6074879062517923e+001 6.4223043488521867e+000 0 0 0
2542 243 2 -4.2830000000000000e-002 5.0692295281340503e+000 -4.4955372896244995e+001 6.6571770927049858e+000 0 0 0
2540 243 14 4.0000000000000001e-002 4.5480211999819975e+000 -4.3658547540615842e+001 6.5048069300065583e+000 0 0 0
2539 243 13 2.0000000000000000e-002 3.2039044043704958e+000 -4.3520067237208025e+001 6.1176030585775187e+000 0 0 0
9908 961 14 4.0000000000000001e-002 -2.2659990923599347e+000 -4.1351924944664468e+001 1.5394266797842619e+001 0 1 0
2535 243 15 -2.3669999999999999e-001 2.6605958521797182e+000 -4.2306631685737919e+001 5.9861905736352456e+000 0 0 0
133 10 8 6.5579999999999999e-002 4.3964330772372151e-001 -3.8361601842817898e+001 9.8485835179130110e-001 0 1 0
9901 961 9 8.4900000000000003e-002 -2.3905293243755068e+000 -3.9034117702362302e+001 1.5120531907614145e+001 0 1 0
3870 374 9 8.4900000000000003e-002 7.9914014115635732e+000 -4.6802153364797043e+001 2.5131977401350545e+000 0 0 0
3861 373 1 -1.9810000000000000e-001 5.0367258542921887e+000 -4.4983615629184229e+001 1.2579708173316562e+000 0 0 0
3869 374 8 6.5579999999999999e-002 7.6913523553879299e+000 -4.6530547768502338e+001 3.9158870491581914e+000 0 0 0
3910 380 13 2.0000000000000000e-002 6.5827567942151370e+000 -4.1526447872411886e+001 -2.2861155189823654e-001 0 0 0
3914 380 12 3.2989999999999998e-002 7.9091016080502250e+000 -4.3637318169461828e+001 -2.7039153204631002e-006 0 0 0
3911 380 14 4.0000000000000001e-002 7.1913204961095341e+000 -4.1891351354593034e+001 9.8089734898021852e-001 0 0 0
3862 373 8 6.5579999999999999e-002 6.1140647029236952e+000 -4.4701352763803627e+001 1.5642007024661280e+000 0 0 0
3912 380 11 -4.1939999999999998e-003 7.9626847103943623e+000 -4.3218622437729302e+001 1.0130174233051881e+000 0 0 0
3865 373 11 -4.1939999999999998e-003 8.4479004798043125e+000 -4.5528431444272421e+001 1.7858786519259389e+000 0 0 0
3863 373 9 8.4900000000000003e-002 7.4794527298126949e+000 -4.4336216380581213e+001 1.9476226459047046e+000 0 0 0
3802 364 2 -4.2830000000000000e-002 7.1712139899387912e+000 -4.0979935762378055e+001 2.0508439824059392e+000 0 0 0
11285 1094 8 6.5579999999999999e-002 6.5970487589606082e+000 -3.6990087845354040e+001 1.4772170649830100e+001 0 0 0
2536 243 2 -4.1939999999999998e-003 5.3569740147914198e+000 -4.2531945229303965e+001 6.7466803590003686e+000 0 0 0
134 10 9 8.4900000000000003e-002 1.2460591226276234e+000 -3.8533942643504673e+001 2.1937445792810171e+000 0 1 0
143 11 11 -4.1939999999999998e-003 1.0962368108169396e+000 -3.7228518427073226e+001 3.0141075023418389e+000 0 1 0
145 11 12 3.2989999999999998e-002 1.5478439810689244e+000 -3.7391428308200759e+001 4.0027013436837748e+000 0 1 0
140 11 8 6.5579999999999999e-002 1.6364537666554664e+000 -3.5731079333153687e+001 9.8093692760374018e-001 0 1 0
139 11 1 -1.9810000000000000e-001 1.4814482502672601e+000 -3.5472791981902454e+001 -1.3463345617689293e-001 0 1 0
2529 243 3 -3.2719999999999999e-001 2.7064587477592617e+000 -4.0004820352920134e+001 6.0205403470747170e+000 0 0 0
2532 243 13 2.0000000000000000e-002 3.3735957761456077e+000 -4.1198023915195940e+001 6.2102474021690250e+000 0 0 0
2533 243 9 8.4900000000000003e-002 4.7386719992709532e+000 -4.1284706329507493e+001 6.5371479694057593e+000 0 0 0
2530 243 2 -4.2830000000000000e-002 5.4179268216514549e+000 -4.0094977806409091e+001 6.8450943635424926e+000 0 0 0
3801 364 15 -2.3669999999999999e-001 5.9953693698176345e+000 -4.0289665000624268e+001 -3.7358518624505704e-001 0 0 0
1334 125 8 6.5579999999999999e-002 8.9688863419679006e+000 -3.9927082474077785e+001 1.5076040816579308e+001 0 1 -1
1333 125 1 -1.9810000000000000e-001 8.9152142043030498e+000 -3.9916048640282668e+001 1.3921246547332732e+001 0 1 -1
3799 364 13 2.0000000000000000e-002 5.9912893797882250e+000 -3.9409377410962627e+001 6.3480010390769914e-001 0 0 0
3800 364 14 4.0000000000000001e-002 6.5544108578625133e+000 -3.9726648818916189e+001 1.8824153224675964e+000 0 0 0
3796 364 2 -4.1939999999999998e-003 6.5919902104599624e+000 -3.8749919455625474e+001 2.8938113440495221e+000 0 0 0
9910 961 2 -4.2830000000000000e-002 -1.8477187021174035e+000 -4.2611754775897047e+001 1.4950626959678832e+001 0 1 0
7420 721 2 -4.2830000000000000e-002 1.6204888803641173e+000 -4.6896403262746304e+001 8.9527977576889537e+000 0 1 0
7423 721 14 4.0000000000000001e-002 1.8072999441000737e+000 -4.8085936272668675e+001 9.6752648190406578e+000 0 1 0
7418 721 14 4.0000000000000001e-002 5.0075967918130049e-001 -4.6086509436165350e+001 9.2164247454141481e+000 0 1 0
2382 227 12 3.2989999999999998e-002 -3.9255268825243474e+000 -5.2263980786586501e+001 2.5354057916236168e+000 1 1 0
7417 721 13 2.0000000000000000e-002 -3.9882469940754189e-001 -4.6493494020965144e+001 1.0210799498893486e+001 0 1 0
7422 721 13 2.0000000000000000e-002 8.5746210930072897e-001 -4.8418371402353877e+001 1.0656078668184284e+001 0 1 0
7517 725 11 -4.1939999999999998e-003 2.8499022693471637e-001 -4.4739498417146066e+001 8.5037599571996303e+000 0 1 0
7419 721 15 -2.3669999999999999e-001 -1.9429243364954163e-001 -4.7626390523290773e+001 1.0893439876537363e+001 0 1 0
5031 484 15 -2.3669999999999999e-001 -2.7556869425825061e+000 -5.1974117418902480e+001 1.2562088707494002e+001 0 0 0
11304 1096 12 3.2989999999999998e-002 3.6653250200068408e+000 -4.3109227877310175e+001 1.3236897714426783e+001 0 0 0
11307 1097 9 8.4900000000000003e-002 2.0759331841668578e+000 -4.4261676582693475e+001 1.4079387448042706e+001 0 0 0
11302 1096 11 -4.1939999999999998e-003 3.1909487543959902e+000 -4.3202094223535084e+001 1.4225980440633556e+001 0 0 0
11303 1096 12 3.2989999999999998e-002 3.9544224691885943e+000 -4.3546336906642537e+001 1.4941106515619651e+001 0 0 0
7518 725 12 3.2989999999999998e-002 1.1224215019076624e+000 -4.4580033688651760e+001 7.8150231635469867e+000 0 1 0
7519 725 12 3.2989999999999998e-002 -6.5336425206809345e-001 -4.4746476727190384e+001 7.9296600300557580e+000 0 1 0
11300 1096 9 8.4900000000000003e-002 2.6911415678094213e+000 -4.1792636603743539e+001 1.4632538972802406e+001 0 0 0
11306 1097 8 6.5579999999999999e-002 1.2652357671777210e+000 -4.4460557324549939e+001 1.5278244742564750e+001 0 0 0
8817 854 12 3.2989999999999998e-002 7.0242700256058024e+000 -5.0412485278966528e+001 1.1419987297198730e+001 0 0 0
11298 1096 1 -1.9810000000000000e-001 1.8939582093293570e+000 -4.1906230239174818e+001 -9.4263261117638941e-001 0 0 1
11299 1096 8 6.5579999999999999e-002 2.2312323948280186e+000 -4.1846505479547190e+001 -2.0454402256881217e+000 0 0 1
8816 854 11 -4.1939999999999998e-003 7.7164220734358233e+000 -5.0083254452070328e+001 1.2211372766617316e+001 0 0 0
8818 854 12 3.2989999999999998e-002 7.1488596923725209e+000 -4.9987578704520011e+001 1.3150686830867203e+001 0 0 0
8814 854 9 8.4900000000000003e-002 8.2426430940388489e+000 -4.8692286139836249e+001 1.1771621345292907e+001 0 0 0
8810 853 12 3.2989999999999998e-002 6.4447977731297730e+000 -4.8192198997496000e+001 1.0755682490538668e+001 0 0 0
3868 374 1 -1.9810000000000000e-001 7.3975159275995210e+000 -4.6301512125175478e+001 5.0073892136914164e+000 0 0 0
9904 961 2 -4.1939999999999998e-003 -1.6570171576536104e+000 -4.0201862085873628e+001 1.4866689324064438e+001 0 1 0
11295 1095 11 -4.1939999999999998e-003 3.8134519424175113e+000 -4.0744041023079262e+001 1.4472485585878200e+001 0 0 0
7513 725 1 -1.9810000000000000e-001 2.1711825763842714e+000 -4.3886592593361677e+001 1.1282513378670142e+001 0 1 0
9898 961 2 -4.2830000000000000e-002 -2.0100108506097052e+000 -3.7846780900298626e+001 1.4477823430848645e+001 0 1 0
7514 725 8 6.5579999999999999e-002 1.3543396487540915e+000 -4.3755032402812937e+001 1.0480839278078323e+001 0 1 0
11297 1095 12 3.2989999999999998e-002 4.1123520908164082e+000 -4.0761591706919468e+001 1.3412269095898482e+001 0 0 0
7525 726 12 3.2989999999999998e-002 9.7222276677217712e-001 -4.2078475320047062e+001 8.1561538289255999e+000 0 1 0
7532 727 12 3.2989999999999998e-002 8.2039521869589960e-001 -3.9523310297889012e+001 8.5612287725657303e+000 0 1 0
7524 726 11 -4.1939999999999998e-003 2.1125657147192139e-001 -4.2173019083949299e+001 8.9445027913021082e+000 0 1 0
7526 726 12 3.2989999999999998e-002 -7.8495746091735108e-001 -4.2007308374387513e+001 8.5073432220049003e+000 0 1 0
7531 727 11 -4.1939999999999998e-003 4.0902024075961896e-001 -3.9635942753157664e+001 9.5737586137442907e+000 0 1 0
7533 727 12 3.2989999999999998e-002 -6.6198817285412470e-001 -3.9382031971024588e+001 9.5481790189162776e+000 0 1 0
7515 725 9 8.4900000000000003e-002 2.5984939457017386e-001 -4.3597518222002790e+001 9.5335026623524293e+000 0 1 0
7522 726 9 8.4900000000000003e-002 5.4075693536289060e-001 -4.1109687834952098e+001 1.0012373203622206e+001 0 1 0
7529 727 9 8.4900000000000003e-002 1.1756550096224276e+000 -3.8628388910546832e+001 1.0459424551017168e+001 0 1 0
11290 1094 12 3.2989999999999998e-002 5.0570152788976772e+000 -3.8557408268148116e+001 1.3493416211257122e+001 0 0 0
7520 726 1 -1.9810000000000000e-001 -7.8882744319392095e-001 -4.1628489080830718e+001 1.2204796069640363e+001 0 1 0
7521 726 8 6.5579999999999999e-002 -2.1839151949875343e-001 -4.1377921949629723e+001 1.1233151188921171e+001 0 1 0
7527 727 1 -1.9810000000000000e-001 7.9002766491356213e-001 -3.9107061863537133e+001 1.3004943756303605e+001 0 1 0
7528 727 8 6.5579999999999999e-002 9.4211020302128035e-001 -3.8881444722512285e+001 1.1881767141881671e+001 0 1 0
132 10 1 -1.9810000000000000e-001 -1.8944298928363665e-001 -3.8197166167406920e+001 3.0394052106585630e-002 0 1 0
11296 1095 12 3.2989999999999998e-002 4.6672126325199264e+000 -4.1095321465911290e+001 1.5074491767091580e+001 0 0 0
11288 1094 11 -4.1939999999999998e-003 4.8756892016121061e+000 -3.8530194060362021e+001 1.4577097815317925e+001 0 0 0
8809 853 11 -4.1939999999999998e-003 7.0634854193717080e+000 -4.7721067419879596e+001 1.1535730741575611e+001 0 0 0
8811 853 12 3.2989999999999998e-002 6.4674200781758344e+000 -4.7672373928381170e+001 1.2462013263639220e+001 0 0 0
8854 860 13 2.0000000000000000e-002 4.5169411950100677e+000 -4.3756830510084178e+001 1.0070231851860822e+001 0 0 0
8857 860 12 3.2989999999999998e-002 5.7323909747975330e+000 -4.6116004449183862e+001 9.6935081719726135e+000 0 0 0
8745 844 15 -2.3669999999999999e-001 4.1238753517102253e+000 -4.2441117840871776e+001 9.9824884583714173e+000 0 0 0
8855 860 14 4.0000000000000001e-002 5.7921201018884956e+000 -4.4122835599652802e+001 1.0515419821822643e+001 0 0 0
8856 860 11 -4.1939999999999998e-003 5.9942689536763396e+000 -4.5646470240627828e+001 1.0655187584954426e+001 0 0 0
8746 844 2 -4.2830000000000000e-002 6.6797232118885246e+000 -4.3082660457645346e+001 1.0854553621994157e+001 0 0 0
8807 853 9 8.4900000000000003e-002 7.3425291499539975e+000 -4.6264709310118398e+001 1.1084327908659468e+001 0 0 0
11289 1094 12 3.2989999999999998e-002 5.6433613577959374e+000 -3.9152396953399780e+001 1.5065693193562648e+001 0 0 0
11291 1095 1 -1.9810000000000000e-001 2.8874573215216621e+000 -3.8977890705526328e+001 -7.0485156426202833e-001 0 0 1
11292 1095 8 6.5579999999999999e-002 3.1798945535684484e+000 -3.9107523345841955e+001 -1.8144142579633851e+000 0 0 1
11282 1093 12 3.2989999999999998e-002 4.5058218075047556e+000 -3.5863405149491307e+001 1.3447160002329744e+001 0 0 0
11279 1093 9 8.4900000000000003e-002 4.8904409629052319e+000 -3.4508479640940649e+001 1.5100256448161820e+001 0 0 0
11293 1095 9 8.4900000000000003e-002 3.5456060790056085e+000 -3.9259775326311839e+001 1.4843883941869095e+001 0 0 0
8806 853 8 6.5579999999999999e-002 7.9705286777593596e+000 -4.5487946701859350e+001 1.2150151702671426e+001 0 0 0
8858 860 12 3.2989999999999998e-002 5.2399332452894143e+000 -4.5951277301697374e+001 1.1397882281539173e+001 0 0 0
11286 1094 9 8.4900000000000003e-002 5.1738465029385647e+000 -3.7102751353937947e+001 1.5089355794643119e+001 0 0 0
11283 1093 12 3.2989999999999998e-002 3.3385723267264145e+000 -3.5994219061942424e+001 1.4794157788551962e+001 0 0 0
11281 1093 11 -4.1939999999999998e-003 4.4029736510953512e+000 -3.5875666068289377e+001 1.4542735357242753e+001 0 0 0
8744 844 14 4.0000000000000001e-002 6.2535384824884170e+000 -4.1739051733544642e+001 1.0772960373563818e+001 0 0 0
8743 844 13 2.0000000000000000e-002 4.9479018528554919e+000 -4.1455051900338823e+001 1.0336265564346062e+001 0 0 0
3882 376 1 -1.9810000000000000e-001 6.1468372626027596e+000 -5.1791071079106111e+001 4.1242063786452778e+000 0 0 0
7539 728 12 3.2989999999999998e-002 1.1102085429328534e+000 -3.7072087257572193e+001 8.9627110060369670e+000 0 1 0
7538 728 11 -4.1939999999999998e-003 8.8790608792092685e-001 -3.7165947960715798e+001 1.0036831370796152e+001 0 1 0
7540 728 12 3.2989999999999998e-002 -1.8719709253797326e-001 -3.6975466359719697e+001 1.0182964858368157e+001 0 1 0
7536 728 9 8.4900000000000003e-002 1.6788198122645457e+000 -3.6062884370431014e+001 1.0778322562995058e+001 0 1 0
7535 728 8 6.5579999999999999e-002 1.4272551638938331e+000 -3.6186735713610524e+001 1.2214507439393570e+001 0 1 0
8739 844 15 -2.3669999999999999e-001 4.4984446551871011e+000 -4.0197855955442783e+001 1.0261519386923029e+001 0 0 0
8740 844 2 -4.1939999999999998e-003 7.1010902975111962e+000 -4.0669123253495705e+001 1.1113938193777464e+001 0 0 0
3795 364 15 -2.3669999999999999e-001 5.5347147759994479e+000 -3.8172804326057900e+001 4.1578992436412510e-001 0 0 0
144 11 12 3.2989999999999998e-002 2.6942082169434851e-002 -3.7004485358910614e+001 3.1572704996470931e+000 0 1 0
2527 243 14 4.0000000000000001e-002 4.7293155015341393e+000 -3.8876063102093369e+001 6.7404396163600024e+000 0 0 0
3792 364 13 2.0000000000000000e-002 5.5340151426073660e+000 -3.7259448874231026e+001 1.3925729572874634e+000 0 0 0
3793 364 9 8.4900000000000003e-002 5.6766639254259896e+000 -3.7694188482198847e+001 2.7249791010170652e+000 0 0 0
99 5 9 8.4900000000000003e-002 1.5447514481756783e+000 -5.1420627016009036e+001 2.1909270122323767e+000 0 1 0
141 11 9 8.4900000000000003e-002 1.8374959281865590e+000 -3.6014408706078221e+001 2.4035585712281420e+000 0 1 0
7432 721 2 -4.1939999999999998e-003 3.8841695587035092e+000 -5.1105081492951868e+001 9.8024000447724102e+000 0 1 0
9928 962 2 -4.1939999999999998e-003 -1.8113452521687050e+000 -4.9493041560491157e+001 -1.9420836890263748e+000 0 1 1
2526 243 13 2.0000000000000000e-002 3.3838262943807438e+000 -3.8890926777866092e+001 6.3297482251579664e+000 0 0 0
9932 962 14 4.0000000000000001e-002 -2.4276082188022992e+000 -5.0680282779853634e+001 -1.5328730764259690e+000 0 1 1
2388 228 11 -4.1939999999999998e-003 -4.0483381516115235e+000 -4.9692142359695886e+001 2.3412358083010827e+000 1 1 0
9907 961 13 2.0000000000000000e-002 -3.2579644508164827e+000 -4.1274701219196913e+001 -1.6764788966398323e+000 0 1 1
11305 1097 1 -1.9810000000000000e-001 6.5895459060271955e-001 -4.4643587845145170e+001 -1.8223131934821135e+000 0 0 1
9900 961 13 2.0000000000000000e-002 -3.0953453666730253e+000 -3.8940090540138812e+001 -1.7321639636938320e+000 0 1 1
11310 1097 12 3.2989999999999998e-002 3.2798828994394174e+000 -4.5541151771192581e+001 1.2776069627010415e+001 0 0 0
11309 1097 11 -4.1939999999999998e-003 2.4610086262986317e+000 -4.5644693015594115e+001 1.3504151115630883e+001 0 0 0
11311 1097 12 3.2989999999999998e-002 1.5699472334925830e+000 -4.6000741146232627e+001 1.2963394060925401e+001 0 0 0
9924 962 13 2.0000000000000000e-002 -3.6725598562455155e+000 -4.8318228715924811e+001 -1.2123894495442400e+000 0 1 1
9889 961 13 2.0000000000000000e-002 -3.3341185054976119e+000 -3.4287005191368593e+001 -1.9123891914506543e+000 0 1 1
8737 844 9 8.4900000000000003e-002 6.4392569648048745e+000 -3.9449109482060578e+001 1.1356594498954228e+001 0 0 0
2523 243 15 -2.3669999999999999e-001 2.6966797173954640e+000 -3.7747659194134776e+001 6.2317829797534792e+000 0 0 0
1258 121 2 -4.2830000000000000e-002 6.9155649229551512e+000 -4.9523533770957606e+001 -1.7505796266975400e+000 0 1 0
5014 483 2 -4.2830000000000000e-002 -3.3617917345951853e+000 -4.5869070705751824e+001 8.1940291471084770e+000 0 0 0
7426 721 2 -4.2830000000000000e-002 2.9075530327949832e+000 -4.8943461676627223e+001 9.4813543351413383e+000 0 1 0
11314 1098 9 8.4900000000000003e-002 2.7721382274910273e+000 -4.6749088322182367e+001 1.4533005579853207e+001 0 0 0
11312 1098 1 -1.9810000000000000e-001 4.7691289946245874e+000 -4.6081501761171765e+001 -1.9764816264804008e+000 0 0 1
11313 1098 8 6.5579999999999999e-002 3.8883800898525682e+000 -4.6385888052918837e+001 1.5403702257937018e+001 0 0 0
3867 373 12 3.2989999999999998e-002 8.5363403080855242e+000 -4.5779369881424472e+001 7.1813938020286061e-001 0 0 0
11316 1098 11 -4.1939999999999998e-003 2.9427821156604677e+000 -4.8144010032672540e+001 1.3891888421635819e+001 0 0 0
11318 1098 12 3.2989999999999998e-002 2.1790742327468542e+000 -4.8230437813890447e+001 1.3108241118356398e+001 0 0 0
2385 228 8 6.5579999999999999e-002 -2.3730451904065641e+000 -4.8001786838796569e+001 2.9501254266718826e+000 1 1 0
8736 844 13 2.0000000000000000e-002 5.2588350772775625e+000 -3.9167343206624913e+001 1.0644321349833014e+001 0 0 0
3790 364 2 -4.2830000000000000e-002 5.9589460187571968e+000 -3.6624767821214959e+001 3.5897469434842617e+000 0 0 0
8734 844 2 -4.2830000000000000e-002 7.2704487624313350e+000 -3.8332239983640200e+001 1.1521552885049521e+001 0 0 0
3872 374 11 -4.1939999999999998e-003 8.9115433385982481e+000 -4.8021056531116827e+001 2.2853213243386579e+000 0 0 0
108 6 11 -4.1939999999999998e-003 2.5829573219892104e+000 -5.0266533513157128e+001 2.1839059344158795e+000 0 1 0
109 6 12 3.2989999999999998e-002 3.0383174150611234e+000 -5.0139895537043429e+001 3.1785577990748575e+000 0 1 0
110 6 12 3.2989999999999998e-002 3.3758237168394740e+000 -5.0612126228761049e+001 1.5040138465963948e+000 0 1 0
7425 721 3 -3.2719999999999999e-001 9.7853539591070082e-001 -4.9515429664800962e+001 1.1412638704793459e+001 0 1 0
11317 1098 12 3.2989999999999998e-002 3.9345775054954646e+000 -4.8235087089733319e+001 1.3420761815356293e+001 0 0 0
2524 243 2 -4.2830000000000000e-002 5.3364974081752772e+000 -3.7642782626672684e+001 7.0381481052594488e+000 0 0 0
11270 1092 1 -1.9810000000000000e-001 2.9600698066931028e+000 -5.2197616736457569e+001 -6.6118687528342801e-001 0 1 1
3874 374 12 3.2989999999999998e-002 8.9852704557845051e+000 -4.8186602672519477e+001 1.1986863162844072e+000 0 0 0
3913 380 12 3.2989999999999998e-002 9.0142239824972936e+000 -4.2985774283907688e+001 1.2440981133161118e+000 0 0 0
3879 375 11 -4.1939999999999998e-003 9.0760729330313161e+000 -5.0599538088239818e+001 2.5718899868469269e+000 0 0 0
1256 121 14 4.0000000000000001e-002 7.9823703138856921e+000 -4.8613208651890886e+001 -1.7662757470420656e+000 0 1 0
3881 375 12 3.2989999999999998e-002 8.8710666345946283e+000 -5.0783275970102757e+001 1.5043995631500318e+000 0 0 0
7429 721 9 8.4900000000000003e-002 3.0301832055045352e+000 -5.0092908024372321e+001 1.0285020781374104e+001 0 1 0
7428 721 13 2.0000000000000000e-002 1.7929421456204169e+000 -5.0466394022982627e+001 1.0833641251126698e+001 0 1 0
3866 373 12 3.2989999999999998e-002 9.4422370376527116e+000 -4.5230907732923946e+001 2.1571598206754525e+000 0 0 0
8813 854 8 6.5579999999999999e-002 9.2803968603368983e+000 -4.8165757161281455e+001 1.2655261780380808e+001 0 0 0
7534 728 1 -1.9810000000000000e-001 1.2391465951888676e+000 -3.6295910458170901e+001 1.3349401688835657e+001 0 1 0
3789 364 3 -3.2719999999999999e-001 4.9904141944054823e+000 -3.6037598087731418e+001 1.0494036269953988e+000 0 0 0
9895 961 14 4.0000000000000001e-002 -2.4187924591107528e+000 -3.6621030165932126e+001 1.5019937170386571e+001 0 1 0
8733 844 3 -3.2719999999999999e-001 4.6083894633512319e+000 -3.7944765040449198e+001 1.0706922198112501e+001 0 0 0
8731 844 14 4.0000000000000001e-002 6.7536768474991709e+000 -3.7048348334409134e+001 1.1291935158183980e+001 0 0 0
8812 854 1 -1.9810000000000000e-001 1.0132547574405207e+001 -4.7742351618886367e+001 1.3308780852969619e+001 0 0 0
9894 961 13 2.0000000000000000e-002 -3.1365867609864839e+000 -3.6622756477223085e+001 -1.8358995824755708e+000 0 1 1
1261 122 13 2.0000000000000000e-002 8.4988437649104682e+000 -5.1349250655854249e+001 -1.8005635778612921e+000 0 1 0
1252 121 2 -4.1939999999999998e-003 7.7559740609215453e+000 -4.7226619557583724e+001 -1.7167938476530979e+000 0 1 0
6244 603 2 -4.1939999999999998e-003 8.7352235309970236e+000 -4.8339192024028499e+001 7.6463913943538948e+000 0 0 0
3873 374 12 3.2989999999999998e-002 9.9205473068636625e+000 -4.7824781252602648e+001 2.6811886511161411e+000 0 0 0
1345 126 12 3.2989999999999998e-002 7.5722999771910411e+000 -3.8450564270423079e+001 -1.1942031660889922e+000 0 1 0
8805 853 1 -1.9810000000000000e-001 8.4689714113290400e+000 -4.4846486281134275e+001 1.2970694824091925e+001 0 0 0
11284 1094 1 -1.9810000000000000e-001 7.7199321370124521e+000 -3.6933552772009946e+001 1.4510068855128704e+001 0 0 0
11277 1093 1 -1.9810000000000000e-001 7.4554775130508792e+000 -3.4135122060082381e+001 1.4731381986975098e+001 0 0 0
11278 1093 8 6.5579999999999999e-002 6.3248677706343512e+000 -3.4313297018030468e+001 1.4885024248216638e+001 0 0 0
4999 483 14 4.0000000000000001e-002 -3.2934576660783126e+000 -3.9879710617979725e+001 8.2325277858321968e+000 0 0 0
152 12 12 3.2989999999999998e-002 2.8050672715743334e+000 -3.4220052514110982e+001 2.9795197686072301e+000 0 1 0
150 12 11 -4.1939999999999998e-003 1.8245163019928283e+000 -3.4677889751826733e+001 3.1767923940081357e+000 0 1 0
151 12 12 3.2989999999999998e-002 1.7496029875041321e+000 -3.4864758660761645e+001 4.2536061525918871e+000 0 1 0
4996 483 2 -4.2830000000000000e-002 -2.8515582561308990e+000 -3.8736030105487345e+001 7.5519909909241907e+000 0 0 0
148 12 9 8.4900000000000003e-002 7.9036162367867246e-001 -3.3622694960407181e+001 2.7285178648825164e+000 0 1 0