LAMMPS data file via write_data, version 11 Aug 2017, timestep = 33863

9540 atoms
18 atom types
10807 bonds
18 bond types
18388 angles
39 angle types
28404 dihedrals
62 dihedral types
2294 impropers
9 improper types

4.6710757774617591e+000 8.1328926222527556e+001 xlo xhi
-5.6103390369837882e+001 2.8503391369837885e+001 ylo yhi
-4.3958142559205449e-001 1.4239581425591830e+001 zlo zhi

Masses

1 14.0067
2 12.011
3 14.0067
4 15.9994
5 1.008
6 1.008
7 15.9994
8 12.011
9 12.011
10 1.008
11 12.011
12 1.008
13 12.011
14 12.011
15 14.0067
16 15.9994
17 14.0067
18 12.011


Bond Coeffs # harmonic

1 1365.78 1.155
2 398.26 1.093
3 1024.04 1.2
4 500.95 1.374
5 362.01 1.1
6 362.01 1.1
7 509.51 1.359
8 591.76 0.965
9 517.41 1.528
10 497.83 1.459
11 362.01 1.1
12 705.27 1.398
13 362.01 1.1
14 705.27 1.398
15 634.85 1.335
16 398.26 1.093
17 634.85 1.335
18 867.4 1.238

Angle Coeffs # harmonic

1 50 180
2 50 104.51
3 50 109.471
4 50 109.471
5 50 109.471
6 50 120
7 50 120
8 50 120
9 50 120
10 50 120
11 50 120
12 50 120
13 50 120
14 50 109.471
15 50 109.471
16 50 120
17 50 109.471
18 50 109.471
19 50 109.471
20 50 120
21 50 109.471
22 50 109.471
23 50 120
24 50 109.471
25 50 109.471
26 50 109.471
27 50 120
28 50 106.7
29 50 109.471
30 50 109.471
31 50 109.471
32 50 120
33 50 109.471
34 50 109.471
35 50 106.7
36 50 120
37 50 120
38 50 120
39 50 120

Dihedral Coeffs # harmonic

1 0 1 1
2 0 1 1
3 1 1 3
4 1 1 3
5 1 1 3
6 0.5 -1 6
7 12.5 -1 2
8 12.5 -1 2
9 0.5 -1 6
10 0.5 -1 6
11 0.5 -1 6
12 12.5 -1 2
13 12.5 -1 2
14 1 1 3
15 1 1 3
16 1 1 3
17 1 1 3
18 12.5 -1 2
19 12.5 -1 2
20 12.5 -1 2
21 0.5 -1 6
22 0.5 -1 6
23 12.5 -1 2
24 12.5 -1 2
25 12.5 -1 2
26 1 1 3
27 1 1 3
28 1 1 3
29 12.5 -1 2
30 12.5 -1 2
31 0.5 -1 6
32 0.5 -1 6
33 12.5 -1 2
34 1 1 3
35 0.5 -1 6
36 0.5 -1 6
37 1 1 3
38 1 1 3
39 1 1 3
40 1 1 3
41 1 1 3
42 1 1 3
43 1 1 3
44 0.5 -1 6
45 0.5 -1 6
46 0.5 -1 6
47 1 1 3
48 0.5 -1 6
49 0.5 -1 6
50 1 1 3
51 1 1 3
52 1 -1 2
53 0.5 -1 6
54 0.5 -1 6
55 0.5 -1 6
56 12.5 -1 2
57 12.5 -1 2
58 12.5 -1 2
59 12.5 -1 2
60 12.5 -1 2
61 12.5 -1 2
62 12.5 -1 2

Improper Coeffs # umbrella

1 20 0
2 20 0
3 20 0
4 20 0
5 20 0
6 20 0
7 20 0
8 20 0
9 20 0

Atoms # full

2741 263 15 -2.3669999999999999e-001 2.3279218298561588e+001 -5.1100836461395403e+001 5.5924806080733758e+000 0 2 0
7812 758 9 8.4900000000000003e-002 2.1499753650274968e+001 -4.5131826094236651e+001 1.2531048535404091e+001 0 0 0
5281 509 12 3.2989999999999998e-002 2.3441844839923373e+001 -4.4439335626169466e+001 1.0886709024493065e+001 0 1 0
7807 757 11 -4.1939999999999998e-003 2.2173930726201178e+001 -4.3771118166704035e+001 1.3056935065959713e+001 0 0 0
7808 757 12 3.2989999999999998e-002 2.2331682254520850e+001 -4.3916921076461222e+001 1.4119411933183979e+001 0 0 0
7809 757 12 3.2989999999999998e-002 2.3161997791930727e+001 -4.3732910606107460e+001 1.2599840679337051e+001 0 0 0
7805 757 9 8.4900000000000003e-002 2.1543417829057177e+001 -4.2293164208131842e+001 1.2969706633091096e+001 0 0 0
5288 510 12 3.2989999999999998e-002 2.3336340605222233e+001 -4.1653022881386960e+001 1.1035481574390904e+001 0 1 0
7800 756 11 -4.1939999999999998e-003 2.2241319398039895e+001 -4.0880480374266604e+001 1.3330799542943780e+001 0 0 0
7801 756 12 3.2989999999999998e-002 2.2569274201809097e+001 -4.1016472183313880e+001 -3.3023571496839488e-001 0 0 1
7802 756 12 3.2989999999999998e-002 2.3123445303884839e+001 -4.0784014134691574e+001 1.2702657434663186e+001 0 0 0
7803 757 1 -1.9810000000000000e-001 2.0850730142872496e+001 -4.2299203489120117e+001 1.0480012504047027e+001 0 0 0
7804 757 8 6.5579999999999999e-002 2.1104931589006771e+001 -4.2251520446737203e+001 1.1600962842738067e+001 0 0 0
7810 758 1 -1.9810000000000000e-001 2.0973482530339535e+001 -4.4984034432243384e+001 9.9762576937825731e+000 0 0 0
7811 758 8 6.5579999999999999e-002 2.1216152235432869e+001 -4.5071595753609458e+001 1.1107222356446593e+001 0 0 0
7819 759 9 8.4900000000000003e-002 2.1445930975603126e+001 -4.7918194326468232e+001 1.2219796295657158e+001 0 0 0
4069 393 9 8.4900000000000003e-002 2.1520109860462515e+001 -4.1745684704955963e+001 2.9838489992639303e+000 0 1 0
5274 508 12 3.2989999999999998e-002 2.3653350564712500e+001 -4.7057456566171538e+001 1.0948536749105497e+001 0 1 0
4068 393 8 6.5579999999999999e-002 2.0871683917806198e+001 -4.1759778976028784e+001 1.6834740492068789e+000 0 1 0
4076 394 9 8.4900000000000003e-002 2.1309390516744365e+001 -4.4648051296331900e+001 2.8484935238421030e+000 0 1 0
4072 393 12 3.2989999999999998e-002 2.2435074427727091e+001 -4.3342056769481893e+001 4.1805423042662619e+000 0 1 0
4071 393 11 -4.1939999999999998e-003 2.2060920321157891e+001 -4.3251530492461796e+001 3.1576056355494639e+000 0 1 0
7816 758 12 3.2989999999999998e-002 2.3101986416168938e+001 -4.6599468591002839e+001 1.2758622428103790e+001 0 0 0
7814 758 11 -4.1939999999999998e-003 2.2014470632581851e+001 -4.6591362892182630e+001 1.2885552819248002e+001 0 0 0
7815 758 12 3.2989999999999998e-002 2.1827701332579188e+001 -4.6686569255048582e+001 1.3957377616275693e+001 0 0 0
4074 394 1 -1.9810000000000000e-001 2.0283013095738703e+001 -4.5158657812908089e+001 5.2620588772078580e-001 0 1 0
7822 759 12 3.2989999999999998e-002 2.1621055363256570e+001 -4.9383575092078488e+001 1.3821754805066163e+001 0 0 0
7818 759 8 6.5579999999999999e-002 2.1864796361277936e+001 -4.7938919484670876e+001 1.0819481407445801e+001 0 0 0
4067 393 1 -1.9810000000000000e-001 2.0304516629480261e+001 -4.1808462369377608e+001 6.8117101956669712e-001 0 1 0
7817 759 1 -1.9810000000000000e-001 2.2239680608293430e+001 -4.8053044382319108e+001 9.7366588331046255e+000 0 0 0
4078 394 11 -4.1939999999999998e-003 2.1944342418659421e+001 -4.6125413603079956e+001 2.9745376494389366e+000 0 1 0
7769 752 8 6.5579999999999999e-002 2.1232552162484012e+001 -5.0710297591373383e+001 1.0700706582888600e+001 0 1 0
4083 395 9 8.4900000000000003e-002 2.1249269137097158e+001 -4.7582672317156110e+001 2.7824363082297223e+000 0 1 0
5267 507 12 3.2989999999999998e-002 2.3399805454681520e+001 -4.9986684396383637e+001 1.0759858258994971e+001 0 1 0
7770 752 9 8.4900000000000003e-002 2.1142181738860490e+001 -5.0659626717339009e+001 1.2145363953216622e+001 0 1 0
7823 759 12 3.2989999999999998e-002 2.2912795501130695e+001 -4.9475465991774023e+001 1.2638353516995700e+001 0 0 0
4075 394 8 6.5579999999999999e-002 2.0718002120939083e+001 -4.4812815964205932e+001 1.5360778764725562e+000 0 1 0
7821 759 11 -4.1939999999999998e-003 2.1825150008646606e+001 -4.9363968367042737e+001 1.2747807999642271e+001 0 0 0
4087 395 12 3.2989999999999998e-002 2.2723418530756739e+001 -4.8894048035672107e+001 1.9836299582728065e+000 0 1 0
4080 394 12 3.2989999999999998e-002 2.2776401867631673e+001 -4.6122787994837488e+001 2.2887489278346171e+000 0 1 0
4073 393 12 3.2989999999999998e-002 2.2968961334232990e+001 -4.3279982459333112e+001 2.5608482561420893e+000 0 1 0
4079 394 12 3.2989999999999998e-002 2.2441973726813085e+001 -4.6177500791448360e+001 3.9441251045692560e+000 0 1 0
2735 263 3 -3.2719999999999999e-001 2.3143048249577838e+001 -4.8615461171457682e+001 5.7941942979798489e+000 0 2 0
4082 395 8 6.5579999999999999e-002 2.0630646595724926e+001 -4.7916766657989456e+001 1.5096035729818305e+000 0 1 0
7768 752 1 -1.9810000000000000e-001 2.1322370206513853e+001 -5.0904742566247613e+001 9.5726016350967438e+000 0 1 0
4089 396 8 6.5579999999999999e-002 2.3010409484323279e+001 -5.1094364037137268e+001 2.9700830465401546e+000 0 1 0
4081 395 1 -1.9810000000000000e-001 2.0203600081845302e+001 -4.8407269069905368e+001 5.6166884009116513e-001 0 1 0
4092 396 11 -4.1939999999999998e-003 2.1240163270926399e+001 -5.1730960003442412e+001 1.7855441149821378e+000 0 1 0
4093 396 12 3.2989999999999998e-002 2.1858190038902649e+001 -5.1572574574709769e+001 9.0656681172409170e-001 0 1 0
4086 395 12 3.2989999999999998e-002 2.2634855776166866e+001 -4.8844530643001619e+001 3.6951069340729452e+000 0 1 0
5273 508 12 3.2989999999999998e-002 2.3985694739506037e+001 -4.7043815877270504e+001 9.2199736870982498e+000 0 1 0
2723 262 15 -2.3669999999999999e-001 2.3289553569223674e+001 -4.3553920279791967e+001 6.2625126422303881e+000 0 2 0
7774 752 12 3.2989999999999998e-002 2.2650349284937185e+001 -5.2191713839437071e+001 1.2465631736344875e+001 0 1 0
12278 1188 12 3.2989999999999998e-002 4.7776661517996306e+000 -5.5624954319699867e+001 3.8679207594568252e+000 1 -1 -1
7772 752 11 -4.1939999999999998e-003 2.1563463964907143e+001 -5.2122879757761979e+001 1.2578933125618736e+001 0 1 0
4085 395 11 -4.1939999999999998e-003 2.2020596958121615e+001 -4.8983544989353085e+001 2.8019056089735455e+000 0 1 0
2729 263 15 -2.3669999999999999e-001 2.3198586816499137e+001 -4.6135371131334054e+001 6.0196536907879219e+000 0 2 0
1535 144 15 -2.3669999999999999e-001 2.3619549945721680e+001 -5.1695294663744669e+001 1.8952003853022370e-001 0 1 0
4096 397 8 6.5579999999999999e-002 2.0352625201750651e+001 -5.3793635541110525e+001 2.9752303453045275e+000 0 1 0
7854 762 14 4.0000000000000001e-002 3.6962116109662091e+001 -5.4791617990557995e+001 1.0628522978853674e+000 0 3 2
5132 498 1 -1.9810000000000000e-001 5.3408096346646170e+000 -4.0971828766896905e+001 1.3580792109496171e+001 0 -3 -2
2782 266 1 -1.9810000000000000e-001 2.3600594231852842e+001 -2.1738573391657212e+001 9.8576590047503068e+000 0 2 0
5319 515 9 8.4900000000000003e-002 2.7461360992359722e+001 -2.0677981606552784e+001 1.1872661638577489e+001 0 0 0
5407 523 15 -2.3669999999999999e-001 3.5709139013207192e+001 -5.5477371917464978e+001 1.1385426227470456e+001 0 3 1
7849 761 15 -2.3669999999999999e-001 3.6133787222868747e+001 -5.3362699556595629e+001 1.4036334346839370e+001 0 3 1
11445 1107 11 -4.1939999999999998e-003 2.9318080493160206e+001 -2.0988215834650397e+001 3.9540697678369330e-001 0 2 1
5092 492 9 8.4900000000000003e-002 5.0078851580552302e+000 -4.6479482191728529e+001 1.0814094098538163e+001 0 -2 -2
4322 420 13 2.0000000000000000e-002 4.2741484512276571e+001 -4.7283862795098720e+001 1.5128904712926743e+000 0 3 2
6736 651 12 3.2989999999999998e-002 3.7206105174844936e+001 -5.2417201398127148e+001 7.4242084549366467e+000 0 4 1
12285 1189 12 3.2989999999999998e-002 4.9936368204580939e+000 -5.2692326273674219e+001 4.1890437963839462e+000 1 -1 -1
9142 884 13 2.0000000000000000e-002 3.8653882455400257e+001 -5.2604242378642503e+001 5.0698770531312691e+000 0 3 2
4097 397 9 8.4900000000000003e-002 2.1386029126882814e+001 -5.3308170191494625e+001 2.1064398830321585e+000 0 1 0
5305 513 9 8.4900000000000003e-002 2.7206136504297870e+001 -1.5175687444638243e+001 1.1975325755193992e+001 0 0 0
6735 651 11 -4.1939999999999998e-003 3.6737638412418946e+001 -5.2448381585663789e+001 8.4165720786067162e+000 0 4 1
7761 751 1 -1.9810000000000000e-001 2.0951645929700188e+001 -5.3342728762143757e+001 9.2736328129074739e+000 0 1 0
4090 396 9 8.4900000000000003e-002 2.1675565516412565e+001 -5.0580048987734067e+001 2.8371618004782824e+000 0 1 0
5266 507 12 3.2989999999999998e-002 2.3826073342813388e+001 -4.9914689325296926e+001 9.0741182443426922e+000 0 1 0
5081 490 12 3.2989999999999998e-002 5.2412356470200079e+000 -5.3216462054419182e+001 1.1095515806753284e+001 0 -2 -2
9143 884 14 4.0000000000000001e-002 3.8228587665544296e+001 -5.2509918246523569e+001 3.7370308975541509e+000 0 3 2
10515 1021 3 -3.2719999999999999e-001 4.2894749355054962e+001 -1.4850215598109216e+001 1.1128593064243896e+001 0 3 2
1759 167 1 -1.9810000000000000e-001 4.2727860460903109e+001 -2.0554340929392694e+001 1.4156794510052258e+001 0 4 1
5673 547 1 -1.9810000000000000e-001 4.2625235715285882e+001 -3.6255961305052985e+001 6.4848125368463183e+000 0 3 2
4213 404 15 -2.3669999999999999e-001 4.2925553567011889e+001 -4.5981831214357904e+001 1.0354316735778724e+000 0 3 2
5125 497 1 -1.9810000000000000e-001 5.0747277699537250e+000 -3.8053854160242061e+001 1.3547710980558232e+001 0 -3 -2
4282 414 9 8.4900000000000003e-002 4.1656268478371580e+001 -5.3200893310593415e+001 3.0797510833103883e+000 0 3 2
4285 414 12 3.2989999999999998e-002 4.0735721399227664e+001 -5.4362141328545064e+001 4.6802195184408699e+000 0 3 2
1705 163 3 -3.2719999999999999e-001 4.1472340966059811e+001 -5.2903696155633931e+001 1.3720590518767677e+001 0 4 1
11697 1134 8 6.5579999999999999e-002 3.5157878600099949e+001 -5.3709660192109943e+001 4.6988239984366800e+000 0 3 2
1745 165 1 -1.9810000000000000e-001 4.2856059726126340e+001 -2.6471664562586646e+001 1.4086502728834059e+001 0 4 1
1708 163 13 2.0000000000000000e-002 4.0844102088367421e+001 -5.4179978091691282e+001 1.3648186508824288e+001 0 4 1
1752 166 1 -1.9810000000000000e-001 4.2958305167372153e+001 -2.3514484404071695e+001 1.3892257250431406e+001 0 4 1
11698 1134 9 8.4900000000000003e-002 3.4369928436803086e+001 -5.3632387296742991e+001 3.4781655275971448e+000 0 3 2
11696 1134 1 -1.9810000000000000e-001 3.5684467666686032e+001 -5.3753870291690561e+001 5.7324767341937486e+000 0 3 2
2287 221 15 -2.3669999999999999e-001 4.6797152608921486e+000 -1.6264361489010881e+001 8.0317088916620349e+000 1 -3 -2
4101 397 12 3.2989999999999998e-002 2.0260674402316255e+001 -5.4608523465899395e+001 7.2646270028878868e-001 0 1 0
12292 1190 12 3.2989999999999998e-002 4.9966226571906160e+000 -4.9779449589873728e+001 4.4943015843610539e+000 1 -1 -1
1703 163 14 4.0000000000000001e-002 3.9494569611474944e+001 -5.1827724086110244e+001 1.2952645092586472e+001 0 4 1
476 43 18 -4.1939999999999998e-003 3.2082692856932269e+001 -5.5431646592489990e+001 9.5542466206753236e+000 0 2 0
5247 505 1 -1.9810000000000000e-001 2.5251756486332972e+001 -5.4332362413660874e+001 1.2850635635902677e+001 0 1 0
3014 289 12 3.2989999999999998e-002 3.1544751855680541e+001 -5.3076170427482772e+001 6.7004544597925602e+000 0 3 1
1712 163 2 -4.1939999999999998e-003 3.8863249384909111e+001 -5.5471875617613279e+001 1.3548639383383350e+001 0 4 1
7763 751 9 8.4900000000000003e-002 2.0948408233778416e+001 -5.3415657462303948e+001 1.1881579901001258e+001 0 1 0
1711 163 15 -2.3669999999999999e-001 4.1511226087449401e+001 -5.5359777453206199e+001 1.3861623532721978e+001 0 4 1
5075 489 12 3.2989999999999998e-002 4.6741249900340733e+000 -5.6023976895324253e+001 1.2652266332512674e+001 0 -2 -2
6182 601 14 4.0000000000000001e-002 1.7336362979435016e+001 -5.5629787434146472e+001 8.1155669514525801e+000 0 -3 -1
10034 972 1 -1.9810000000000000e-001 4.8268308833401212e+000 -2.8075650317038299e+001 -3.3833878511096549e-001 0 -2 -1
1706 163 2 -4.2830000000000000e-002 3.8911252131735374e+001 -5.3106358427152919e+001 1.2791754956408965e+001 0 4 1
472 43 13 2.0000000000000000e-002 3.0216744098627412e+001 -5.4210581470972841e+001 8.5562526115334343e+000 0 2 0
3848 371 8 6.5579999999999999e-002 1.3732820624030806e+001 -1.4212055910571742e+001 1.1448395135734826e+001 0 -3 -2
473 43 9 8.4900000000000003e-002 3.1457412800969028e+001 -5.4222997711239486e+001 9.2058393838176418e+000 0 2 0
5406 523 14 4.0000000000000001e-002 3.3931078778974012e+001 -5.4217510555951677e+001 1.0510438664770623e+001 0 3 1
9897 961 3 -3.2719999999999999e-001 4.8337822043488794e+000 -5.3855397815258605e+001 1.8395501108737813e+000 0 -2 -1
7766 751 12 3.2989999999999998e-002 2.1091669654338759e+001 -5.4938165884941569e+001 1.3370077415814775e+001 0 1 0
10479 1016 12 3.2989999999999998e-002 3.3434182186129213e+001 -5.3290932194759527e+001 3.4390367554876622e-001 0 3 2
10478 1016 11 -4.1939999999999998e-003 3.2859125197799685e+001 -5.3240915574654245e+001 1.4091728071696256e+001 0 3 1
11330 1100 12 3.2989999999999998e-002 1.2953939598609894e+001 -5.6004139577238853e+001 8.5578881484849738e+000 0 -3 -1
7604 738 1 -1.9810000000000000e-001 1.2175343181253181e+001 -5.4796617349775346e+001 4.9650857958792196e+000 0 -3 -1
7605 738 8 6.5579999999999999e-002 1.2681086550191768e+001 -5.4781505147005340e+001 3.9334370444754256e+000 0 -3 -1
7606 738 9 8.4900000000000003e-002 1.3139352968682982e+001 -5.4780779861686149e+001 2.5731972098858322e+000 0 -3 -1
10061 975 12 3.2989999999999998e-002 7.2093310164422286e+000 -1.4265238100759341e+001 2.7668483798135921e+000 0 -3 -1
4094 396 12 3.2989999999999998e-002 2.0224980558196382e+001 -5.1528564773993395e+001 1.4509026640222047e+000 0 1 0
11328 1100 11 -4.1939999999999998e-003 1.3228290089546938e+001 -5.6057484056298343e+001 7.5048511971846281e+000 0 -3 -1
9891 961 15 -2.3669999999999999e-001 4.8321245978899485e+000 -5.1511542134710304e+001 2.0233601798793477e+000 0 -2 -1
319 27 9 8.4900000000000003e-002 1.6792069189522742e+001 -5.5742624343200561e+001 1.2215236799099916e+000 0 1 -1
5408 523 18 -4.2830000000000000e-002 3.3324166442890963e+001 -5.5446821765969474e+001 1.0191633989425561e+001 0 3 1
318 27 8 6.5579999999999999e-002 1.5450920154203851e+001 -5.5746637521762118e+001 6.4478669998120397e-001 0 1 -1
317 27 1 -1.9810000000000000e-001 1.4407601215762956e+001 -5.5767642842232917e+001 1.6817365986429900e-001 0 1 -1
475 43 15 -2.3669999999999999e-001 2.9657763531838189e+001 -5.5399998293971130e+001 8.2360100130532388e+000 0 2 0
10234 991 8 6.5579999999999999e-002 1.8689048880237653e+001 -5.5608509263925228e+001 5.2745203224269614e+000 0 1 0
10235 991 9 8.4900000000000003e-002 2.0055719661101129e+001 -5.5647675801559672e+001 5.8095286171332390e+000 0 1 0
10233 991 1 -1.9810000000000000e-001 1.7716175030432627e+001 -5.5418625572886782e+001 4.6801839238451182e+000 0 1 0
10246 992 12 3.2989999999999998e-002 2.1366959690831042e+001 -5.4137886182891911e+001 6.6177111807449824e+000 0 1 0
10245 992 12 3.2989999999999998e-002 1.9929283089857776e+001 -5.4342615879007660e+001 7.5572949302287382e+000 0 1 0
10244 992 11 -4.1939999999999998e-003 2.0278242864059610e+001 -5.4210294531867284e+001 6.5290581663666805e+000 0 1 0
329 28 12 3.2989999999999998e-002 1.6718986642921273e+001 -5.4121331728867304e+001 2.6773794530407948e+000 0 1 -1
328 28 11 -4.1939999999999998e-003 1.7187797791398346e+001 -5.4235207833778666e+001 1.6902074376952312e+000 0 1 -1
330 28 12 3.2989999999999998e-002 1.8262915436375518e+001 -5.4294936219508287e+001 1.8341704880783767e+000 0 1 -1
6282 605 12 3.2989999999999998e-002 1.6183266110563093e+001 -5.4125025134117941e+001 7.2070840291274365e+000 0 -3 -1
6281 605 11 -4.1939999999999998e-003 1.6848630159902044e+001 -5.4117365658952068e+001 8.0390871184616941e+000 0 -3 -1
6283 605 12 3.2989999999999998e-002 1.6267277913025914e+001 -5.3960318289222535e+001 8.9565609464301428e+000 0 -3 -1
8956 865 8 6.5579999999999999e-002 2.8205163213702988e+001 -2.1727684608658343e+001 9.2700585184512914e+000 0 2 0
5088 491 12 3.2989999999999998e-002 5.1311450592713825e+000 -5.0402168843281132e+001 1.0844507432531547e+001 0 -2 -2
8955 865 1 -1.9810000000000000e-001 2.9183909177693135e+001 -2.1762183218240033e+001 9.8787354159042629e+000 0 2 0
6277 605 1 -1.9810000000000000e-001 1.8932888825340488e+001 -5.2592102551903082e+001 9.9982579337336119e+000 0 -3 -1
1709 163 9 8.4900000000000003e-002 3.9567845324393282e+001 -5.4330253919589339e+001 1.3085892701451924e+001 0 4 1
4284 414 11 -4.1939999999999998e-003 4.1607650032935993e+001 -5.4457387818315354e+001 4.0374975665833279e+000 0 3 2
7853 762 13 2.0000000000000000e-002 3.6271549068063422e+001 -5.4685556016846220e+001 -1.4770923340419057e-001 0 3 2
7602 737 12 3.2989999999999998e-002 1.2923713606215264e+001 -5.3384553472999194e+001 9.9067504693052211e-001 0 -3 -1
7603 737 12 3.2989999999999998e-002 1.1539271842118248e+001 -5.3394890747065070e+001 2.0538818270692643e+000 0 -3 -1
7601 737 11 -4.1939999999999998e-003 1.2626729685719425e+001 -5.3384384105424317e+001 2.0375415649400623e+000 0 -3 -1
10480 1016 12 3.2989999999999998e-002 3.3584844308077898e+001 -5.3276800884814975e+001 1.3264750721892620e+001 0 3 1
6737 651 12 3.2989999999999998e-002 3.5649702817769928e+001 -5.2463791793311216e+001 8.2645261415343416e+000 0 4 1
7767 751 12 3.2989999999999998e-002 2.2444935289066422e+001 -5.4865127199698186e+001 1.2201420916204615e+001 0 1 0
7765 751 11 -4.1939999999999998e-003 2.1358106243563313e+001 -5.4873801543462051e+001 1.2309709669155914e+001 0 1 0
2293 222 15 -2.3669999999999999e-001 4.9119196872956152e+000 -1.8725482505588928e+001 7.8880271569812379e+000 1 -3 -2
2294 222 2 -4.2830000000000000e-002 5.2476327955096167e+000 -1.8570638170936206e+001 5.2182949996675099e+000 1 -3 -2
7599 737 9 8.4900000000000003e-002 1.3061867723872504e+001 -5.2014451301674086e+001 2.7219675200499442e+000 0 -3 -1
194 18 12 3.2989999999999998e-002 1.0787618356504218e+001 -5.6064470769332111e+001 4.0812673367451433e+000 0 -3 -2
192 18 11 -4.1939999999999998e-003 9.7217143124814598e+000 -5.5912825410581554e+001 4.0114797539135179e+000 0 -3 -2
193 18 12 3.2989999999999998e-002 9.3290334299614344e+000 -5.5878373435427882e+001 5.0322131987100498e+000 0 -3 -2
11327 1100 14 4.0000000000000001e-002 1.3570173552331969e+001 -5.4528199100397124e+001 7.0799166288122022e+000 0 -3 -1
7598 737 8 6.5579999999999999e-002 1.4441268333830132e+001 -5.2153710792433685e+001 3.1014142560775455e+000 0 -3 -1
7597 737 1 -1.9810000000000000e-001 1.5545470881466668e+001 -5.2285694777208541e+001 3.4180040810773145e+000 0 -3 -1
5025 484 3 -3.2719999999999999e-001 6.4277269264084502e+000 -1.7485654741618077e+001 1.1394395258803751e+001 0 -3 -2
190 18 9 8.4900000000000003e-002 9.4735694025383772e+000 -5.4437528364109134e+001 3.4177480082595779e+000 0 -3 -2
3004 288 9 8.4900000000000003e-002 3.2663614144595677e+001 -5.4602477135534585e+001 5.6891934910582487e+000 0 3 1
11217 1084 15 -2.3669999999999999e-001 1.4871877118257519e+001 -5.2942748843388515e+001 5.6994326924373082e+000 0 -3 -1
2292 222 14 4.0000000000000001e-002 5.0470394285539228e+000 -1.7381168166077977e+001 5.9485669051071222e+000 1 -3 -2
11326 1100 13 2.0000000000000000e-002 1.4575698112919866e+001 -5.4233330463515159e+001 6.1460075993788319e+000 0 -3 -1
11218 1084 2 -4.2830000000000000e-002 1.2875440273122464e+001 -5.3293163596884554e+001 7.3844225005873136e+000 0 -3 -1
2291 222 13 2.0000000000000000e-002 4.8759760427164176e+000 -1.7476521492886725e+001 7.3341886700961476e+000 1 -3 -2
5022 484 13 2.0000000000000000e-002 5.6629405800902362e+000 -1.6361172408925626e+001 1.1311466705423742e+001 0 -3 -2
1418 137 8 6.5579999999999999e-002 1.0317253246122281e+001 -1.6277781338374211e+001 9.6601638467460784e+000 0 -3 -2
10710 1040 11 -4.1939999999999998e-003 4.2896019514925790e+001 -5.1644928436389314e+001 1.0901837131199516e+001 0 3 2
1417 137 1 -1.9810000000000000e-001 1.1289473215649949e+001 -1.6459918677107680e+001 1.0257104046094975e+001 0 -3 -2
3852 371 12 3.2989999999999998e-002 1.4783336528819495e+001 -1.6111146932049152e+001 1.2551141292563283e+001 0 -3 -2
3013 289 11 -4.1939999999999998e-003 3.2588331891627526e+001 -5.3175417777483588e+001 6.4005766702738134e+000 0 3 1
3015 289 12 3.2989999999999998e-002 3.3217016100222722e+001 -5.3225813362250975e+001 7.2988774267724041e+000 0 3 1
3851 371 11 -4.1939999999999998e-003 1.5159262820871728e+001 -1.6148512108841942e+001 1.1541584826361371e+001 0 -3 -2
187 17 12 3.2989999999999998e-002 1.1118685866985071e+001 -5.3125505069888760e+001 4.1204479681207973e+000 0 -3 -2
188 18 1 -1.9810000000000000e-001 6.8774191849813615e+000 -5.4256453274326148e+001 3.5877131225027297e+000 0 -3 -2
7461 722 15 -2.3669999999999999e-001 1.3357019496482749e+001 -1.6245909320066204e+001 3.1484188019435488e+000 0 -3 -1
189 18 8 6.5579999999999999e-002 8.0229310029103456e+000 -5.4319943731969168e+001 3.4512287178593390e+000 0 -3 -2
10711 1040 12 3.2989999999999998e-002 4.2261584310635399e+001 -5.1593903761488434e+001 1.0011137698414357e+001 0 3 2
185 17 11 -4.1939999999999998e-003 1.0036097840372019e+001 -5.3068445878848344e+001 4.0573621290679549e+000 0 -3 -2
7462 722 2 -4.2830000000000000e-002 1.5407433982623603e+001 -1.6552849199551993e+001 4.6114973262200261e+000 0 -3 -1
11447 1107 12 3.2989999999999998e-002 2.8407961825413167e+001 -2.0899626225476410e+001 -1.9321755802087962e-001 0 2 1
10712 1040 12 3.2989999999999998e-002 4.2179845320649726e+001 -5.1716977329139930e+001 1.1711868042447671e+001 0 3 2
2752 264 14 4.0000000000000001e-002 2.4492856170026972e+001 -5.4893200611757877e+001 6.9165292379687813e+000 0 2 0
10483 1017 9 8.4900000000000003e-002 3.2044558699744215e+001 -5.4638818383436508e+001 1.4035333544838245e+001 0 3 1
3003 288 8 6.5579999999999999e-002 3.1611684002534844e+001 -5.4663500040943951e+001 4.6772295148389311e+000 0 3 1
3840 370 1 -1.9810000000000000e-001 1.6346187786790892e+001 -1.7758728492719527e+001 8.7924249425798315e+000 0 -3 -2
7773 752 12 3.2989999999999998e-002 2.1350195110976081e+001 -5.2206121035279352e+001 1.3648037836948097e+001 0 1 0
4095 397 1 -1.9810000000000000e-001 1.9609841745580987e+001 -5.4543737601272106e+001 3.4356658577566308e+000 0 1 0
3002 288 1 -1.9810000000000000e-001 3.0762234116327544e+001 -5.4789266927219259e+001 3.9100711580820331e+000 0 3 1
11216 1084 14 4.0000000000000001e-002 1.3153510559099502e+001 -5.1940995418351832e+001 6.9252003987298236e+000 0 -3 -1
10059 975 11 -4.1939999999999998e-003 6.3114210547775977e+000 -1.4147371576766034e+001 2.1646010827239350e+000 0 -3 -1
186 17 12 3.2989999999999998e-002 9.6651316381724026e+000 -5.3057972458298266e+001 5.0864143348643847e+000 0 -3 -2
11215 1084 13 2.0000000000000000e-002 1.4237177536035487e+001 -5.1803887076010518e+001 6.0527852576094885e+000 0 -3 -1
10665 1033 12 3.2989999999999998e-002 4.1892230840291226e+001 -5.4363130894934315e+001 1.1611737966472031e+001 0 3 2
10664 1033 12 3.2989999999999998e-002 4.2065132688204507e+001 -5.4359484769525679e+001 9.8763383978118018e+000 0 3 2
10663 1033 11 -4.1939999999999998e-003 4.2629559774253103e+001 -5.4442634213723196e+001 1.0813147592021314e+001 0 3 2
4286 414 12 3.2989999999999998e-002 4.2465538309276788e+001 -5.4375137382935428e+001 4.7023908446748255e+000 0 3 2
6278 605 8 6.5579999999999999e-002 1.8438860005969399e+001 -5.2698951936253756e+001 8.9738992308293444e+000 0 -3 -1
9894 961 13 2.0000000000000000e-002 5.4040970052370394e+000 -5.2646218335294222e+001 1.5736501221541408e+000 0 -2 -1
9900 961 13 2.0000000000000000e-002 5.3699233477074575e+000 -5.5035567044944671e+001 1.2874152734843953e+000 0 -2 -1
5074 489 12 3.2989999999999998e-002 5.5674071286060327e+000 -5.5909027854100941e+001 1.1126119348656315e+001 0 -2 -2
8818 854 12 3.2989999999999998e-002 1.6913802923041111e+001 -5.5014084532976256e+001 1.0865373061368585e+001 0 0 -1
8812 854 1 -1.9810000000000000e-001 1.4990793426487608e+001 -5.3966146178853670e+001 1.3186028963632074e+001 0 0 -1
8813 854 8 6.5579999999999999e-002 1.6127454763793128e+001 -5.3929415763122790e+001 1.3029943475511963e+001 0 0 -1
8814 854 9 8.4900000000000003e-002 1.7544057041170298e+001 -5.4081792032549480e+001 1.2764662790430389e+001 0 0 -1
8816 854 11 -4.1939999999999998e-003 1.7541498270056081e+001 -5.5286847736774632e+001 1.1728244010969791e+001 0 0 -1
8817 854 12 3.2989999999999998e-002 1.8577392299760458e+001 -5.5342121709335295e+001 1.1384344371580170e+001 0 0 -1
8810 853 12 3.2989999999999998e-002 1.8848250631170661e+001 -5.2610230173243274e+001 1.3741555262828525e+001 0 0 -1
8809 853 11 -4.1939999999999998e-003 1.8272717528764996e+001 -5.2661154847001107e+001 1.2804441580539891e+001 0 0 -1
324 28 1 -1.9810000000000000e-001 1.4513091454054672e+001 -5.2339976747125107e+001 4.1201420858110749e-001 0 1 -1
8811 853 12 3.2989999999999998e-002 1.8990465882842916e+001 -5.2667412712098105e+001 1.1998280041110267e+001 0 0 -1
10240 992 1 -1.9810000000000000e-001 1.8189297545496469e+001 -5.2149365552602958e+001 4.1119901494080962e+000 0 1 0
10241 992 8 6.5579999999999999e-002 1.8826890105969852e+001 -5.2501189864170321e+001 5.0125506753528697e+000 0 1 0
10242 992 9 8.4900000000000003e-002 1.9794515777815320e+001 -5.2716408520286329e+001 6.0866571184774534e+000 0 1 0
325 28 8 6.5579999999999999e-002 1.5590079182786830e+001 -5.2631521467394045e+001 6.9647754420522445e-001 0 1 -1
326 28 9 8.4900000000000003e-002 1.6993348588004853e+001 -5.2801953303367561e+001 9.2970255783861311e-001 0 1 -1
10295 999 12 3.2989999999999998e-002 2.1295711210889195e+001 -5.1383077285555572e+001 5.4770641024119158e+000 0 0 0
10293 999 11 -4.1939999999999998e-003 2.0523192424502874e+001 -5.1295562205791676e+001 6.2390576135946842e+000 0 0 0
10294 999 12 3.2989999999999998e-002 2.1011825881560082e+001 -5.1253658533849240e+001 7.2218952677066612e+000 0 0 0
335 29 11 -4.1939999999999998e-003 1.7392870177547259e+001 -5.1272472475482701e+001 1.3460555466698785e+000 0 1 -1
336 29 12 3.2989999999999998e-002 1.7108764551627960e+001 -5.1232328749997322e+001 2.3913966201057488e+000 0 1 -1
337 29 12 3.2989999999999998e-002 1.8471293890736177e+001 -5.1216744078425386e+001 1.3161846049074284e+000 0 1 -1
332 29 8 6.5579999999999999e-002 1.5754864734919373e+001 -4.9845036348834554e+001 -4.6615595370822605e-002 0 1 -1
331 29 1 -1.9810000000000000e-001 1.4854718969860601e+001 -4.9858930939809760e+001 1.3918997988333571e+001 0 1 -2
333 29 9 8.4900000000000003e-002 1.6871046919536489e+001 -4.9803178045699759e+001 8.6620473527235853e-001 0 1 -1
6279 605 9 8.4900000000000003e-002 1.7660955797319211e+001 -5.2786218517250305e+001 7.8037933863909341e+000 0 -3 -1
6288 606 11 -4.1939999999999998e-003 1.7007128360614850e+001 -5.1378137768842407e+001 7.5361045162357669e+000 0 -3 -1
6290 606 12 3.2989999999999998e-002 1.6057835829329132e+001 -5.1355575207768119e+001 8.0946764595062248e+000 0 -3 -1
6289 606 12 3.2989999999999998e-002 1.6782015485896601e+001 -5.1422807393855223e+001 6.4652023325938419e+000 0 -3 -1
6286 606 9 8.4900000000000003e-002 1.7693307938298375e+001 -4.9962268322235182e+001 7.7270397901424719e+000 0 -3 -1