LAMMPS data file via write_data, version 11 Aug 2017, timestep = 113

5820 atoms
18 atom types
7639 bonds
18 bond types
13096 angles
39 angle types
22292 dihedrals
62 dihedral types
3398 impropers
9 improper types

2.8689639696883802e+000 8.3131038030295670e+001 xlo xhi
-4.7079314502225209e+001 1.9479315502225212e+001 ylo yhi
-7.8466666537866914e-001 1.4584666665378718e+001 zlo zhi

Masses

1 14.0067
2 12.011
3 14.0067
4 15.9994
5 1.008
6 1.008
7 15.9994
8 12.011
9 12.011
10 1.008
11 12.011
12 1.008
13 12.011
14 12.011
15 14.0067
16 15.9994
17 14.0067
18 12.011


Bond Coeffs # harmonic

1 1365.78 1.155
2 398.26 1.093
3 1024.04 1.2
4 500.95 1.374
5 362.01 1.1
6 362.01 1.1
7 509.51 1.359
8 591.76 0.965
9 517.41 1.528
10 497.83 1.459
11 362.01 1.1
12 705.27 1.398
13 362.01 1.1
14 705.27 1.398
15 634.85 1.335
16 398.26 1.093
17 634.85 1.335
18 867.4 1.238

Angle Coeffs # harmonic

1 50 180
2 50 104.51
3 50 109.471
4 50 109.471
5 50 109.471
6 50 120
7 50 120
8 50 120
9 50 120
10 50 120
11 50 120
12 50 120
13 50 120
14 50 109.471
15 50 109.471
16 50 120
17 50 109.471
18 50 109.471
19 50 109.471
20 50 120
21 50 109.471
22 50 109.471
23 50 120
24 50 109.471
25 50 109.471
26 50 109.471
27 50 120
28 50 106.7
29 50 109.471
30 50 109.471
31 50 109.471
32 50 120
33 50 109.471
34 50 109.471
35 50 106.7
36 50 120
37 50 120
38 50 120
39 50 120

Dihedral Coeffs # harmonic

1 0 1 1
2 0 1 1
3 1 1 3
4 1 1 3
5 1 1 3
6 0.5 -1 6
7 12.5 -1 2
8 12.5 -1 2
9 0.5 -1 6
10 0.5 -1 6
11 0.5 -1 6
12 12.5 -1 2
13 12.5 -1 2
14 1 1 3
15 1 1 3
16 1 1 3
17 1 1 3
18 12.5 -1 2
19 12.5 -1 2
20 12.5 -1 2
21 0.5 -1 6
22 0.5 -1 6
23 12.5 -1 2
24 12.5 -1 2
25 12.5 -1 2
26 1 1 3
27 1 1 3
28 1 1 3
29 12.5 -1 2
30 12.5 -1 2
31 0.5 -1 6
32 0.5 -1 6
33 12.5 -1 2
34 1 1 3
35 0.5 -1 6
36 0.5 -1 6
37 1 1 3
38 1 1 3
39 1 1 3
40 1 1 3
41 1 1 3
42 1 1 3
43 1 1 3
44 0.5 -1 6
45 0.5 -1 6
46 0.5 -1 6
47 1 1 3
48 0.5 -1 6
49 0.5 -1 6
50 1 1 3
51 1 1 3
52 1 -1 2
53 0.5 -1 6
54 0.5 -1 6
55 0.5 -1 6
56 12.5 -1 2
57 12.5 -1 2
58 12.5 -1 2
59 12.5 -1 2
60 12.5 -1 2
61 12.5 -1 2
62 12.5 -1 2

Improper Coeffs # umbrella

1 20 0
2 20 0
3 20 0
4 20 0
5 20 0
6 20 0
7 20 0
8 20 0
9 20 0

Atoms # full

7696 744 14 4.0000000000000001e-002 1.6667440676462160e+001 -4.1033663024100520e+001 1.4352955876461970e-001 0 -3 -5
7695 744 13 2.0000000000000000e-002 1.6652919796335446e+001 -4.0994533473372172e+001 1.5454144136900227e+000 0 -3 -5
1273 122 9 8.4900000000000003e-002 1.2417568495904783e+001 -4.0777956497477390e+001 1.4515552876321605e+001 0 -4 -10
2336 223 13 2.0000000000000000e-002 7.9145385926825629e+000 -3.2569615728882177e+001 7.0688383152313810e+000 1 -6 -10
2359 224 15 -2.3669999999999999e-001 6.3367118531948305e+000 -4.1753336581299870e+001 6.9977931205020694e+000 1 -6 -10
3768 363 13 2.0000000000000000e-002 1.9179327870235088e+001 -4.2879334990046658e+001 1.0902738309484947e+001 0 -3 -6
3766 363 13 2.0000000000000000e-002 2.0344944183382566e+001 -4.2633051594104970e+001 1.3032058710029238e+001 0 -3 -6
7465 723 13 2.0000000000000000e-002 8.7443846435028316e+000 -4.0556672175405751e+001 2.3287197327075817e+000 0 -5 -9
1272 122 13 2.0000000000000000e-002 1.3485337037416537e+001 -4.0136856302421727e+001 1.3880295384908321e+001 0 -4 -10
7467 723 15 -2.3669999999999999e-001 8.3159017786557747e+000 -4.1752606016253942e+001 1.8679078770792001e+000 0 -5 -9
340 30 9 8.4900000000000003e-002 2.0023552505455662e+001 -4.1129253455923539e+001 6.8618767169437103e+000 0 -2 -6
7466 723 14 4.0000000000000001e-002 9.9460284483645669e+000 -4.0058253105744349e+001 1.8198368171176966e+000 0 -5 -9
349 31 13 2.0000000000000000e-002 1.9333556304711983e+001 -3.9818837354232279e+001 7.1506509798216022e+000 0 -2 -6
6184 601 13 2.0000000000000000e-002 2.0919870800723743e+001 -4.3263636433682613e+001 1.4137879250163511e+001 0 -3 -6
4104 398 9 8.4900000000000003e-002 1.6664013252199741e+001 -4.1137763894647009e+001 1.2524764520779526e+001 0 -3 -7
7673 743 15 -2.3669999999999999e-001 1.6423042819334732e+001 -3.2819040340244328e+001 2.3946802837659025e+000 0 -3 -5
7692 743 13 2.0000000000000000e-002 1.6751078352365614e+001 -3.9845053745414639e+001 -5.8975557640830767e-001 0 -3 -5
7471 723 14 4.0000000000000001e-002 1.0092535473970020e+001 -4.1919876793546166e+001 3.3255809501250555e-001 0 -5 -9
2655 257 9 8.4900000000000003e-002 9.7680511534146337e+000 -4.0552604784334399e+001 1.0524810308338047e+001 0 -6 -10
7691 743 15 -2.3669999999999999e-001 1.6763192316193315e+001 -3.9778774448499810e+001 2.1872904074618416e+000 0 -3 -5
4099 397 13 2.0000000000000000e-002 1.6717618464847043e+001 -3.9879199825523258e+001 1.3375837043031098e+001 0 -3 -7
1275 122 15 -2.3669999999999999e-001 1.3954531442882555e+001 -4.0613488428709815e+001 1.2723861632030205e+001 0 -4 -10
4113 399 13 2.0000000000000000e-002 1.6246114454983669e+001 -4.4764785152418391e+001 1.3614881724129564e+001 0 -3 -7
7468 723 13 2.0000000000000000e-002 1.0628244933833400e+001 -4.0733264782548950e+001 8.1206744396920494e-001 0 -5 -9
10182 984 13 2.0000000000000000e-002 1.9882047961031223e+001 -3.4832379891767033e+001 2.1181611667884162e-001 0 -3 -5
3772 363 13 2.0000000000000000e-002 1.9727336365472453e+001 -4.4831703676658080e+001 1.2196638147606338e+001 0 -3 -6
115 7 13 2.0000000000000000e-002 1.2892803981028170e+001 -3.9155546741722709e+001 5.4110833023867908e+000 0 -4 -10
1270 122 13 2.0000000000000000e-002 1.1784973848029537e+001 -4.0198777818482384e+001 2.3489111234999649e-001 0 -4 -9
5115 495 13 2.0000000000000000e-002 6.1432117072001908e+000 -3.9248147424976615e+001 1.4495204287685961e+001 0 -6 -10
10263 995 9 8.4900000000000003e-002 1.7244763638706502e+001 -3.8382769201440475e+001 7.2853576787650214e+000 0 -3 -5
6300 608 9 8.4900000000000003e-002 2.2256413539802065e+001 -3.3059677580598013e+001 1.3069089766532036e+001 0 -3 -6
7414 720 13 2.0000000000000000e-002 9.4793052028267706e+000 -3.0646599249005298e+001 9.4238133337714078e+000 -1 -6 -10
8767 847 13 2.0000000000000000e-002 1.3723955227643705e+001 -3.9304685638671749e+001 4.2949054783008602e+000 0 -5 -9
10185 984 13 2.0000000000000000e-002 2.0583203140540256e+001 -3.5372794991308155e+001 2.3510261880397727e+000 0 -3 -5
11309 1097 13 2.0000000000000000e-002 6.1472226185596321e+000 -3.9411816484202106e+001 5.2713688132758563e-001 0 -6 -9
11307 1097 9 8.4900000000000003e-002 6.0833366982743646e+000 -3.8240491524484689e+001 1.5515826596695899e+000 0 -6 -9
3762 363 13 2.0000000000000000e-002 1.9692020273050112e+001 -4.0849839801217378e+001 1.1710752564885640e+001 0 -3 -6
4844 466 9 8.4900000000000003e-002 5.3348351931293756e+000 -3.2340574884205992e+001 7.1473418661518640e+000 1 -6 -10
6187 601 14 4.0000000000000001e-002 2.0919863842973729e+001 -4.4671959405874809e+001 1.4263847934319051e+001 0 -3 -6
10181 984 15 -2.3669999999999999e-001 2.0496857825386819e+001 -3.4118373245580578e+001 2.7911196701366752e+000 0 -3 -5
7483 723 13 2.0000000000000000e-002 8.9509371496987509e+000 -4.5744858849488189e+001 1.2915233342560407e+001 0 -5 -10
7674 743 13 2.0000000000000000e-002 1.5897086416986561e+001 -3.2696977950267417e+001 -3.0296720397341459e-001 0 -3 -5
1279 122 13 2.0000000000000000e-002 1.3418532919290408e+001 -4.1694105002843415e+001 1.2154637419162865e+001 0 -4 -10
2345 224 14 4.0000000000000001e-002 6.6488922526643544e+000 -3.5870177667371351e+001 7.9003776922794877e+000 1 -6 -10
6281 605 13 2.0000000000000000e-002 2.1345426801857538e+001 -4.0881549799890308e+001 -4.1438645277265052e-001 0 -3 -5
5120 496 9 8.4900000000000003e-002 5.8690048284981451e+000 -4.0608293427050434e+001 1.3685460642409454e+001 0 -6 -10
10270 996 9 8.4900000000000003e-002 1.7070959761479774e+001 -4.0809229730394762e+001 7.9388386623397604e+000 0 -3 -5
5101 493 13 2.0000000000000000e-002 7.6464964231707162e+000 -3.3734550716599891e+001 -6.2930683895140616e-001 0 -6 -9
8758 846 9 8.4900000000000003e-002 1.3637711492751334e+001 -4.0586383368903839e+001 3.4267652620115698e+000 0 -5 -9
7671 743 13 2.0000000000000000e-002 1.6073967786448723e+001 -3.1627397082575818e+001 1.8632705867450245e+000 0 -3 -5
7470 723 13 2.0000000000000000e-002 8.9379801672769705e+000 -4.2463558209327815e+001 9.0079384387872963e-001 0 -5 -9
7697 744 15 -2.3669999999999999e-001 1.6487021283901854e+001 -4.2122252188196789e+001 2.2538934494724696e+000 0 -3 -5
356 32 13 2.0000000000000000e-002 2.0311947056717958e+001 -3.9160745754722406e+001 5.1042337148527697e+000 0 -2 -6
4111 399 9 8.4900000000000003e-002 1.6434366683517442e+001 -4.3609486899610573e+001 1.2644971932255940e+001 0 -3 -7
4106 398 13 2.0000000000000000e-002 1.6556942200856845e+001 -4.2332259472451533e+001 1.3457890102211300e+001 0 -3 -7
2342 224 13 2.0000000000000000e-002 6.6039501817216797e+000 -3.4507448756578420e+001 7.6416541934096909e+000 1 -6 -10
7698 744 13 2.0000000000000000e-002 1.6534329839672235e+001 -4.2261781424888490e+001 -5.1069114488969147e-001 0 -3 -5
1276 122 13 2.0000000000000000e-002 1.1810376896308922e+001 -4.1906445086878350e+001 1.3991241930769181e+001 0 -4 -10
10179 984 9 8.4900000000000003e-002 1.9764637971936789e+001 -3.3518102730420559e+001 7.0662277420812203e-001 0 -3 -5
7700 744 13 2.0000000000000000e-002 1.6313161863783183e+001 -4.3319585895347991e+001 1.6709246268530096e+000 0 -3 -5
7701 744 14 4.0000000000000001e-002 1.6344506125708513e+001 -4.3410252041830461e+001 2.6739118766490810e-001 0 -3 -5
3763 363 14 4.0000000000000001e-002 2.0223268398631454e+001 -4.1229195113248018e+001 1.2949138008432259e+001 0 -3 -6
1280 122 14 4.0000000000000001e-002 1.2354195865372519e+001 -4.2345005057302657e+001 1.2788837109047067e+001 0 -4 -10
106 6 9 8.4900000000000003e-002 1.1825024379155913e+001 -4.0077864640324350e+001 5.9326156633627187e+000 0 -4 -10
7473 723 3 -3.2719999999999999e-001 8.4230736754049254e+000 -4.3615956941140453e+001 4.2209084923206963e-001 0 -5 -9
10178 984 13 2.0000000000000000e-002 2.0085214082593129e+001 -3.3135364848759373e+001 2.0091768963183094e+000 0 -3 -5
10296 1000 13 2.0000000000000000e-002 2.1029618734249429e+001 -3.7419720193292569e+001 2.9728587696838740e+000 0 -3 -5
7703 744 3 -3.2719999999999999e-001 1.6105954046805842e+001 -4.4383497530043741e+001 2.4690987256111416e+000 0 -3 -5
7704 744 13 2.0000000000000000e-002 1.6174394462136163e+001 -4.4647929888303310e+001 -3.5701171256271419e-001 0 -3 -5
2335 223 15 -2.3669999999999999e-001 1.0272643461670599e+001 -3.4124323486287373e+001 7.3744444046690472e+000 1 -6 -10
7474 723 13 2.0000000000000000e-002 1.0699561230226767e+001 -4.2497587146509709e+001 -7.7468871543758488e-001 0 -5 -9
11314 1098 9 8.4900000000000003e-002 5.9806428231198865e+000 -4.0804476371860346e+001 1.2145339861187887e+000 0 -6 -9
7477 723 9 8.4900000000000003e-002 1.0116777892197408e+001 -4.3617970985164249e+001 1.4030591121463249e+001 0 -5 -10
4078 394 13 2.0000000000000000e-002 1.5650520982337474e+001 -3.2630781576703733e+001 1.3686832983735057e+001 0 -3 -7
7476 723 13 2.0000000000000000e-002 8.9937880407528024e+000 -4.4174825691876364e+001 -7.2000588918172148e-001 0 -5 -9
1281 122 15 -2.3669999999999999e-001 1.3871306301073220e+001 -4.2141951949691766e+001 1.0978929470279891e+001 0 -4 -10
7449 722 3 -3.2719999999999999e-001 7.2126732513410579e+000 -3.5263789088099458e+001 4.8412800014943711e+000 0 -5 -9
347 31 9 8.4900000000000003e-002 2.0323527370859512e+001 -3.8811687520182666e+001 6.5956219822659214e+000 0 -2 -6
1282 122 13 2.0000000000000000e-002 1.1751247644569666e+001 -4.3451841736347852e+001 1.2207802627643726e+001 0 -4 -10
10265 995 13 2.0000000000000000e-002 1.8024873966052137e+001 -3.9652485156735430e+001 7.6181323810508896e+000 0 -3 -5
8760 846 13 2.0000000000000000e-002 1.2564913900004841e+001 -4.1586154701645398e+001 3.9334498455034854e+000 0 -5 -9
10256 994 9 8.4900000000000003e-002 1.7841179686583796e+001 -3.8553754540252243e+001 4.7491229447919361e+000 0 -3 -5
108 6 13 2.0000000000000000e-002 1.1776453382517518e+001 -4.1294521596395036e+001 5.0521494622046976e+000 0 -4 -10
5122 496 13 2.0000000000000000e-002 5.6824568202529218e+000 -4.2055074526202802e+001 1.4353654929600905e+001 0 -6 -10
11316 1098 13 2.0000000000000000e-002 5.8079523787875358e+000 -4.2101634573893811e+001 3.6845955101888633e-001 0 -6 -9
5223 504 13 2.0000000000000000e-002 2.2310950789200685e+001 -4.6770062659281713e+001 8.3575227706421114e+000 0 -2 -2
10258 994 11 -4.1939999999999998e-003 1.7889731127390814e+001 -3.7720444399601902e+001 6.0554877700979253e+000 0 -3 -5
10272 996 13 2.0000000000000000e-002 1.7648543021604628e+001 -4.2091190032128459e+001 7.3371725964067736e+000 0 -3 -5
8751 845 9 8.4900000000000003e-002 1.2382453465448146e+001 -4.2930146267907553e+001 3.1902172914395095e+000 0 -5 -9
2468 240 13 2.0000000000000000e-002 5.2835665013710713e+000 -4.2582888245755427e+001 6.7673888928394792e+000 1 -6 -10
4097 397 9 8.4900000000000003e-002 1.6616379130639437e+001 -3.8660679272207382e+001 1.2472683469588643e+001 0 -3 -7
7690 743 14 4.0000000000000001e-002 1.6802114939226900e+001 -3.8628977144234376e+001 1.0517966481713172e-001 0 -3 -5
7689 743 13 2.0000000000000000e-002 1.6837263094443358e+001 -3.8622439106018604e+001 1.5080201440198471e+000 0 -3 -5
9942 963 13 2.0000000000000000e-002 2.8874794854465158e+000 -3.2373612998181976e+001 1.4191093716615084e+001 0 -5 -10
7484 723 14 4.0000000000000001e-002 1.0046926667738596e+001 -4.5175588509529518e+001 1.2254286103794673e+001 0 -5 -10
2650 256 13 2.0000000000000000e-002 9.4998265260405947e+000 -3.9051349441276606e+001 1.0748597327044704e+001 0 -6 -10
2657 257 13 2.0000000000000000e-002 8.4883642092193785e+000 -4.1381890283781324e+001 1.0321152094334026e+001 0 -6 -10
3753 362 15 -2.3669999999999999e-001 1.9379225773876268e+001 -3.7622060065793981e+001 1.1786024975661054e+001 0 -3 -6
7438 721 13 2.0000000000000000e-002 8.7836135813381233e+000 -3.1217612987514183e+001 1.7996122165909825e+000 0 -5 -9
10187 984 15 -2.3669999999999999e-001 2.1003972670661391e+001 -3.6137973889578674e+001 3.3238595755963871e+000 0 -3 -5
8774 848 13 2.0000000000000000e-002 1.4767758499665820e+001 -3.7015828634069251e+001 4.9334582632494879e+000 0 -5 -9
113 7 9 8.4900000000000003e-002 1.2863148645642010e+001 -3.8038081835583469e+001 6.4148493896873653e+000 0 -4 -10
7677 743 14 4.0000000000000001e-002 1.6243435801852797e+001 -3.3910017564370378e+001 3.0277659298428355e-001 0 -3 -5
3738 362 13 2.0000000000000000e-002 1.8389061763810449e+001 -3.2119992001774406e+001 1.1667208711582335e+001 0 -3 -6
2664 258 13 2.0000000000000000e-002 7.4361066851379256e+000 -4.3686193591595647e+001 9.7565117532286152e+000 0 -6 -10
7707 744 9 8.4900000000000003e-002 1.5925487043756563e+001 -4.5759124861135383e+001 4.5425469483536274e-001 0 -3 -5
101 5 13 2.0000000000000000e-002 1.0511270684268924e+001 -4.3380082917530814e+001 4.8770691340602967e+000 0 -4 -10
8753 845 13 2.0000000000000000e-002 1.1296684957341931e+001 -4.3855253768769913e+001 3.8033878045513845e+000 0 -5 -9
4846 466 13 2.0000000000000000e-002 5.3855892107721886e+000 -3.3812697108308690e+001 7.5789001884671938e+000 1 -6 -10
7486 723 13 2.0000000000000000e-002 1.0551251246717182e+001 -4.5664563171519397e+001 1.1033084165120886e+001 0 -5 -10
7706 744 13 2.0000000000000000e-002 1.5788578136406619e+001 -4.5580341011329523e+001 1.8398068236826166e+000 0 -3 -5
2351 224 9 8.4900000000000003e-002 5.6332720321102512e+000 -3.7942542332125662e+001 8.0918929023032753e+000 1 -6 -10
11321 1099 9 8.4900000000000003e-002 5.9046671894895590e+000 -4.3478670816366488e+001 1.0852384799495420e+000 0 -6 -9
7441 722 13 2.0000000000000000e-002 7.1124893333619035e+000 -3.1858735225416172e+001 3.5261493595762716e+000 0 -5 -9
7388 716 13 2.0000000000000000e-002 7.2137721389426428e+000 -4.0802180202107962e+001 1.0388239738788767e+001 1 -6 -10
4839 465 13 2.0000000000000000e-002 4.1904237827756683e+000 -3.5969159905692649e+001 8.1481712290631716e+000 1 -6 -10
1290 123 13 2.0000000000000000e-002 1.3188096449306858e+001 -4.4738556882479315e+001 8.5972287476071862e+000 0 -4 -10
2334 223 14 4.0000000000000001e-002 9.1984528676587232e+000 -3.2048730489750568e+001 6.9165642243145067e+000 3 -6 -10
3760 363 13 2.0000000000000000e-002 2.0584142562968271e+001 -4.0250556906599094e+001 1.3939987441150594e+001 0 -3 -6
2662 258 9 8.4900000000000003e-002 8.7248315730122137e+000 -4.2876412481997292e+001 1.0011040484728982e+001 0 -6 -10
5213 503 15 -2.3669999999999999e-001 2.2680270165057916e+001 -4.3471401018341197e+001 6.8771215007698618e+000 0 -2 -2
12160 1181 13 2.0000000000000000e-002 3.4896243858750489e+000 -3.8120531109266757e+001 4.3066462946417463e+000 1 -5 -9
7480 723 13 2.0000000000000000e-002 1.0663494383036380e+001 -4.4069348159353346e+001 1.2825837742630066e+001 0 -5 -10
99 5 9 8.4900000000000003e-002 1.0668972258028029e+001 -4.2107840048071985e+001 5.6677273652193225e+000 0 -4 -10
1285 123 13 2.0000000000000000e-002 1.3297325113830901e+001 -4.3244538392102413e+001 1.0383180624379740e+001 0 -4 -10
7485 723 15 -2.3669999999999999e-001 8.3965120999631466e+000 -4.6810225295947681e+001 1.2355692796492303e+001 0 -5 -10
326 28 9 8.4900000000000003e-002 1.8926159344831209e+001 -4.5126018532403236e+001 4.4581441993192756e+000 0 -2 -6
1286 123 14 4.0000000000000001e-002 1.2233566185609948e+001 -4.3917561815855500e+001 1.0992371185097968e+001 0 -4 -10
1287 123 15 -2.3669999999999999e-001 1.3736234708560886e+001 -4.3682038289187545e+001 9.2069884465641270e+000 0 -4 -10
7479 723 15 -2.3669999999999999e-001 8.4517512202804426e+000 -4.5247263959441540e+001 1.4058166584103960e+001 0 -5 -10
3742 362 13 2.0000000000000000e-002 1.9082418357625023e+001 -3.2813438619665156e+001 1.3887398779464025e+001 0 -3 -6
3769 363 9 8.4900000000000003e-002 1.9799291397067577e+001 -4.3446556871740526e+001 1.2019867554863731e+001 0 -3 -6
5127 497 9 8.4900000000000003e-002 5.4215104369980907e+000 -4.3466225240321336e+001 1.3637997164638634e+001 0 -6 -10
7374 714 13 2.0000000000000000e-002 9.2974983799739128e+000 -3.6036823597172550e+001 1.1102976033094540e+001 1 -6 -10
3745 362 9 8.4900000000000003e-002 1.9171766153574538e+001 -3.4115036973287708e+001 1.3409729922031477e+001 0 -3 -6
7395 717 13 2.0000000000000000e-002 6.1669837879026694e+000 -4.3098242067564989e+001 9.8224711246859719e+000 1 -6 -10
1288 123 13 2.0000000000000000e-002 1.1632477014022175e+001 -4.5032865735640435e+001 1.0406004434645697e+001 0 -4 -10
333 29 9 8.4900000000000003e-002 1.9467708234778286e+001 -4.3177389174163672e+001 5.8122281924132135e+000 0 -2 -6
12156 1181 14 4.0000000000000001e-002 3.2166937084925769e+000 -3.5712514511457414e+001 3.0090213690343819e+000 1 -5 -9
5099 493 9 8.4900000000000003e-002 7.1645825141356028e+000 -3.2292777676643908e+001 1.4217537625802192e+001 0 -6 -10
4062 392 9 8.4900000000000003e-002 1.6142970142981454e+001 -4.6068320471733095e+001 1.2841109542429411e+001 0 -2 -7
7379 715 9 8.4900000000000003e-002 8.0388458112969339e+000 -3.6912076727288849e+001 1.0880714166794158e+001 1 -6 -10
5129 497 13 2.0000000000000000e-002 5.4633915626639995e+000 -4.4925504901965489e+001 1.4314356425971138e+001 0 -6 -10
11293 1095 9 8.4900000000000003e-002 5.6450261144272442e+000 -3.3026406491250277e+001 1.4168803007393456e+000 0 -6 -9
1 1 13 2.0000000000000000e-002 8.2717219349972968e+000 -4.3742970924534895e+001 5.7468699966197727e+000 0 -4 -10
2669 259 9 8.4900000000000003e-002 7.6342678140361926e+000 -4.5179678008020772e+001 9.4149649201412000e+000 0 -6 -10
11323 1099 13 2.0000000000000000e-002 5.8464221996705623e+000 -4.4852047354292019e+001 3.3152113232102765e-001 0 -6 -9
10175 984 3 -3.2719999999999999e-001 1.9960663952326389e+001 -3.1851968367395035e+001 2.5248522641264062e+000 0 -3 -5
9939 963 15 -2.3669999999999999e-001 3.0579568419520498e+000 -3.1261844335700317e+001 1.3445519900178519e+001 0 -5 -10
3765 363 3 -3.2719999999999999e-001 1.9357824607120225e+001 -4.1561200674282340e+001 1.0630666224076155e+001 0 -3 -6
2 1 14 4.0000000000000001e-002 9.5696873579647868e+000 -4.4257170406793620e+001 5.6728569347916942e+000 0 -4 -10
3771 363 15 -2.3669999999999999e-001 1.8478434381908478e+001 -4.3596798742302838e+001 1.0019279693933328e+001 0 -3 -6
1257 121 15 -2.3669999999999999e-001 1.3958785597353064e+001 -3.5549805432552979e+001 2.0489276559533391e+000 0 -4 -9
7462 722 13 2.0000000000000000e-002 1.0453646629117975e+001 -3.8841203151916964e+001 2.2547097630638588e+000 0 -5 -9
1256 121 14 4.0000000000000001e-002 1.2047553272848305e+001 -3.5202692213811709e+001 3.4297088647270275e+000 0 -4 -9
10298 1000 13 2.0000000000000000e-002 2.0733809429767700e+001 -3.9463882971030891e+001 2.2154522252896380e+000 0 -3 -5
11300 1096 9 8.4900000000000003e-002 6.0083422738224623e+000 -3.5507088503545518e+001 1.5468316082069822e+000 0 -6 -9
10176 984 13 2.0000000000000000e-002 1.9377563393177155e+001 -3.2503355611073744e+001 -1.5508501053056134e-001 0 -3 -5
1261 122 13 2.0000000000000000e-002 1.3427616989132941e+001 -3.6727565987449751e+001 1.6136726830114838e+000 0 -4 -9
8786 850 9 8.4900000000000003e-002 1.7054041870491858e+001 -3.1087894690942861e+001 5.3800207239829270e+000 0 -5 -9
7682 743 13 2.0000000000000000e-002 1.6827239739440923e+001 -3.6273823670155160e+001 1.5477722770222493e+000 0 -3 -5
7683 743 9 8.4900000000000003e-002 1.6672406303332654e+001 -3.6261513626519900e+001 1.5304861385153279e-001 0 -3 -5
3758 363 14 4.0000000000000001e-002 2.0197731725272696e+001 -3.8853957926153548e+001 1.3788335815430015e+001 0 -3 -6
7459 722 13 2.0000000000000000e-002 8.4347084506349290e+000 -3.8497183173193548e+001 3.5614929421226180e+000 0 -5 -9
1267 122 14 4.0000000000000001e-002 1.2339660988020285e+001 -3.9028591420725633e+001 7.0941188945205047e-001 0 -4 -9
1269 122 3 -3.2719999999999999e-001 1.4125108894278823e+001 -3.9064157296127604e+001 1.4451026202740016e+001 0 -4 -10
3775 363 13 2.0000000000000000e-002 1.8320759689512769e+001 -4.4909988371434430e+001 1.0182604047319041e+001 0 -3 -6
7461 722 15 -2.3669999999999999e-001 8.0108285184715573e+000 -3.9724662940843245e+001 3.1776271765955291e+000 0 -5 -9
3747 362 15 -2.3669999999999999e-001 1.9001295792408843e+001 -3.5536238481465254e+001 1.1608098390354696e+001 0 -3 -6
8765 847 9 8.4900000000000003e-002 1.4746378452721085e+001 -3.8196920755058365e+001 3.9288238292701498e+000 0 -5 -9
5113 495 9 8.4900000000000003e-002 6.4493065665619076e+000 -3.7815060457004343e+001 1.3802678008950172e+001 0 -6 -10
7686 743 13 2.0000000000000000e-002 1.6732269706952302e+001 -3.7431541890732142e+001 -6.1659484019064426e-001 0 -3 -5
3744 362 13 2.0000000000000000e-002 1.8896188656785228e+001 -3.4305606569444045e+001 1.2054842946950153e+001 0 -3 -6
7685 743 15 -2.3669999999999999e-001 1.6890404618639113e+001 -3.7459630621785600e+001 2.1735183929458128e+000 0 -3 -3
4092 396 13 2.0000000000000000e-002 1.6583344385221139e+001 -3.7428542292202550e+001 1.3360388891354246e+001 0 -3 -7
2648 256 9 8.4900000000000003e-002 1.0762657690541731e+001 -3.8228237278446286e+001 1.0974497162574275e+001 0 -6 -10
342 30 13 2.0000000000000000e-002 1.8945456333664310e+001 -4.2173805054956716e+001 6.8172917262162658e+000 0 -2 -6
7460 722 14 4.0000000000000001e-002 9.7081669458859636e+000 -3.8077790178141484e+001 3.1532696605319033e+000 0 -5 -9
1266 122 13 2.0000000000000000e-002 1.3507897986863536e+001 -3.8514559105486306e+001 1.3422947273295643e-001 0 -4 -9
122 8 13 2.0000000000000000e-002 1.3915353037717335e+001 -3.7034479465217686e+001 6.0367488790925572e+000 0 -4 -10
2357 224 13 2.0000000000000000e-002 6.0749143317973093e+000 -4.0518305342807309e+001 7.4149348458922741e+000 1 -6 -10
3777 363 15 -2.3669999999999999e-001 1.7517668344101072e+001 -4.5600584389589834e+001 9.3609800091908699e+000 0 -3 -6
1252 121 13 2.0000000000000000e-002 1.1214907745434605e+001 -3.4341135589742848e+001 4.1362420545232759e+000 0 -4 -9
11295 1095 13 2.0000000000000000e-002 5.0363313479957315e+000 -3.4338479634131247e+001 1.9128146538115856e+000 0 -6 -9
1264 122 13 2.0000000000000000e-002 1.1663912782445346e+001 -3.8370219377988896e+001 1.7283526202280308e+000 0 -4 -9
10188 984 13 2.0000000000000000e-002 2.0367232991628768e+001 -3.7229047387023641e+001 5.9466646931246092e-001 0 -3 -5
1248 121 13 2.0000000000000000e-002 1.3000898519568374e+001 -3.2782706287311356e+001 3.9156280440017683e+000 0 -4 -9
11302 1096 11 -4.1939999999999998e-003 5.4643931589883108e+000 -3.6892020485208540e+001 1.0923520332883452e+000 0 -6 -9
1263 122 15 -2.3669999999999999e-001 1.4025353929360522e+001 -3.7392529797796698e+001 6.2616658964980787e-001 0 -4 -9
2643 255 13 2.0000000000000000e-002 1.0532541293865956e+001 -3.6724020354419991e+001 1.1198808782543754e+001 0 -6 -10
120 8 9 8.4900000000000003e-002 1.3881508447423753e+001 -3.6078567704060667e+001 7.1889977526718543e+000 0 -4 -10
1294 123 13 2.0000000000000000e-002 1.1508092513583712e+001 -4.6587835470227176e+001 8.5472065781708597e+000 0 -4 -10
12157 1181 15 -2.3669999999999999e-001 4.5843724286909842e+000 -3.7443006255514334e+001 4.0502762238000605e+000 1 -5 -9
7455 722 15 -2.3669999999999999e-001 7.6445319339131901e+000 -3.7575935133311951e+001 4.1643720798086559e+000 0 -5 -9
1262 122 14 4.0000000000000001e-002 1.2220323980726986e+001 -3.7178923066862907e+001 2.1531746255134916e+000 0 -4 -9
5108 494 13 2.0000000000000000e-002 7.3177787380021826e+000 -3.6524682109323450e+001 1.4260941130187318e+001 0 -6 -10
2469 240 14 4.0000000000000001e-002 4.0008143504023250e+000 -4.2115311354843826e+001 7.0612807714947001e+000 1 -6 -10
8772 848 9 8.4900000000000003e-002 1.5769720113695525e+001 -3.5844486621919820e+001 4.7608199335355632e+000 0 -5 -9
4853 467 13 2.0000000000000000e-002 6.7513685842432540e+000 -3.1807179277018822e+001 6.8789366371955616e+000 1 -6 -10
2636 254 11 -4.1939999999999998e-003 1.1023611090991924e+001 -3.6689697646391600e+001 1.3777984353200299e+001 0 -6 -10
2629 253 13 2.0000000000000000e-002 8.6997050382621381e+000 -3.6521095517623671e+001 1.4545117001537260e+001 0 -6 -10
3759 363 15 -2.3669999999999999e-001 1.9534887987050038e+001 -3.9584014584653886e+001 1.1496718950327987e+001 0 -3 -6
3751 362 13 2.0000000000000000e-002 1.9386931757503579e+001 -3.6505182962273999e+001 1.2427180493124919e+001 0 -3 -6
2634 254 9 8.4900000000000003e-002 9.7667374007398102e+000 -3.7548052829401307e+001 1.4130769576562191e+001 0 -6 -10
2641 255 9 8.4900000000000003e-002 1.1565783834013224e+001 -3.6554131237560547e+001 1.2324586480877780e+001 0 -6 -10
2675 260 14 4.0000000000000001e-002 1.0033889083557991e+001 -3.3094046034671706e+001 5.7884216645831255e-001 0 -6 -9
7367 713 11 -4.1939999999999998e-003 9.8104266562250224e+000 -3.3280885359069558e+001 1.0506761056869461e+001 1 -6 -10
5224 504 14 4.0000000000000001e-002 2.2844482662264305e+001 -4.6523664439173061e+001 9.6333175498388695e+000 0 -2 -2
3757 363 13 2.0000000000000000e-002 1.9747520904738202e+001 -3.8711835630059944e+001 1.2452783477592474e+001 0 -3 -6
2340 224 14 4.0000000000000001e-002 7.8444542234646972e+000 -3.3909634481018962e+001 7.4217493953001954e+000 1 -6 -10
335 29 13 2.0000000000000000e-002 1.8362085865997230e+001 -4.4146018649215350e+001 5.4702400822613431e+000 0 -2 -6
6286 606 9 8.4900000000000003e-002 2.2820974247098793e+001 -3.7850017027099490e+001 -7.7102157011750982e-001 0 -3 -5
7402 718 13 2.0000000000000000e-002 5.0819736546090812e+000 -4.5352063407841776e+001 9.1551444819660404e+000 1 -6 -10
2671 259 13 2.0000000000000000e-002 6.3358640952540028e+000 -4.5969306839062888e+001 9.1378388742824832e+000 0 -6 -10
7446 722 13 2.0000000000000000e-002 7.5508668512575969e+000 -3.4073012440561307e+001 4.2795054828142138e+000 0 -5 -9
10186 984 14 4.0000000000000001e-002 2.0286261653671346e+001 -3.5863716900185537e+001 1.0530505902001290e+000 0 -3 -5
2360 224 13 2.0000000000000000e-002 3.6859497646702879e+000 -4.0862834881029841e+001 7.5547206557758129e+000 1 -6 -10
2563 244 13 2.0000000000000000e-002 1.1566905967975556e+001 -3.1316796311640196e+001 -7.1276269760637534e-001 0 -6 -9
8659 841 14 4.0000000000000001e-002 9.4941780147246408e+000 -4.6937312143511377e+001 1.9134389274114219e+000 0 -5 -9
12155 1181 13 2.0000000000000000e-002 4.4175106941501534e+000 -3.6296154256305407e+001 3.4275896112864706e+000 1 -5 -9
8654 841 14 4.0000000000000001e-002 1.0912722295279739e+001 -4.5083950260388569e+001 2.8991918969743011e+000 0 -5 -9
1291 123 14 4.0000000000000001e-002 1.2106987076879614e+001 -4.5468187335941764e+001 9.1682276632766584e+000 0 -4 -10
3 1 15 -2.3669999999999999e-001 7.2541964461985913e+000 -4.4583873359659769e+001 5.9122784742543528e+000 0 -4 -10
7444 722 13 2.0000000000000000e-002 9.3600846389017764e+000 -3.2623460672464695e+001 3.4771263604377203e+000 0 -5 -9
1300 123 13 2.0000000000000000e-002 1.1266165170799823e+001 -4.6064400326710924e+001 5.9739510471970947e+000 0 -4 -10
405 39 13 2.0000000000000000e-002 2.1819299911820270e+001 -3.9675335151366568e+001 3.1043009141696150e+000 0 -3 -6
8653 841 13 2.0000000000000000e-002 1.2043740439675457e+001 -4.5755372365575958e+001 2.4283321870587757e+000 0 -5 -9
4 1 13 2.0000000000000000e-002 9.9343265807050969e+000 -4.5588544868559119e+001 5.8953984557592580e+000 0 -4 -10
11272 1092 9 8.4900000000000003e-002 6.4423251867995264e+000 -4.5809667379086413e+001 1.4371242513355982e+000 0 -5 -9
8656 841 2 -4.2830000000000000e-002 9.6436989705965761e+000 -4.5681531274794352e+001 2.5879038397433849e+000 0 -5 -9
134 10 9 8.4900000000000003e-002 1.5690270811645325e+001 -3.2576760130054275e+001 8.8752314049960219e+000 0 -4 -10
2344 224 13 2.0000000000000000e-002 7.8835418302851936e+000 -3.6546030935825449e+001 7.9506202858258321e+000 1 -6 -10
5134 498 9 8.4900000000000003e-002 5.1445377975486295e+000 -4.6141877252070792e+001 1.3274175792488444e+001 0 -6 -10