LAMMPS data file via write_data, version 22 Aug 2018, timestep = 2284

4264 atoms
18 atom types
5908 bonds
18 bond types
10956 angles
39 angle types
20390 dihedrals
62 dihedral types
3326 impropers
9 improper types

2.3106478615570968e+001 6.2893523384413101e+001 xlo xhi
-4.7079314502225209e+001 1.9479315502225212e+001 ylo yhi
3.0906020965995480e+000 1.0709397903400507e+001 zlo zhi

Masses

1 14.0067
2 12.011
3 14.0067
4 15.9994
5 1.008
6 1.008
7 15.9994
8 12.011
9 12.011
10 1.008
11 12.011
12 1.008
13 12.011
14 12.011
15 14.0067
16 15.9994
17 14.0067
18 12.011


Bond Coeffs # harmonic

1 1365.78 1.155
2 398.26 1.093
3 1024.04 1.2
4 500.95 1.374
5 362.01 1.1
6 362.01 1.1
7 509.51 1.359
8 591.76 0.965
9 517.41 1.528
10 497.83 1.459
11 362.01 1.1
12 705.27 1.398
13 362.01 1.1
14 705.27 1.398
15 634.85 1.335
16 398.26 1.093
17 634.85 1.335
18 867.4 1.238

Angle Coeffs # harmonic

1 50 180
2 50 104.51
3 50 109.471
4 50 109.471
5 50 109.471
6 50 120
7 50 120
8 50 120
9 50 120
10 50 120
11 50 120
12 50 120
13 50 120
14 50 109.471
15 50 109.471
16 50 120
17 50 109.471
18 50 109.471
19 50 109.471
20 50 120
21 50 109.471
22 50 109.471
23 50 120
24 50 109.471
25 50 109.471
26 50 109.471
27 50 120
28 50 106.7
29 50 109.471
30 50 109.471
31 50 109.471
32 50 120
33 50 109.471
34 50 109.471
35 50 106.7
36 50 120
37 50 120
38 50 120
39 50 120

Dihedral Coeffs # harmonic

1 0 1 1
2 0 1 1
3 1 1 3
4 1 1 3
5 1 1 3
6 0.5 -1 6
7 12.5 -1 2
8 12.5 -1 2
9 0.5 -1 6
10 0.5 -1 6
11 0.5 -1 6
12 12.5 -1 2
13 12.5 -1 2
14 1 1 3
15 1 1 3
16 1 1 3
17 1 1 3
18 12.5 -1 2
19 12.5 -1 2
20 12.5 -1 2
21 0.5 -1 6
22 0.5 -1 6
23 12.5 -1 2
24 12.5 -1 2
25 12.5 -1 2
26 1 1 3
27 1 1 3
28 1 1 3
29 12.5 -1 2
30 12.5 -1 2
31 0.5 -1 6
32 0.5 -1 6
33 12.5 -1 2
34 1 1 3
35 0.5 -1 6
36 0.5 -1 6
37 1 1 3
38 1 1 3
39 1 1 3
40 1 1 3
41 1 1 3
42 1 1 3
43 1 1 3
44 0.5 -1 6
45 0.5 -1 6
46 0.5 -1 6
47 1 1 3
48 0.5 -1 6
49 0.5 -1 6
50 1 1 3
51 1 1 3
52 1 -1 2
53 0.5 -1 6
54 0.5 -1 6
55 0.5 -1 6
56 12.5 -1 2
57 12.5 -1 2
58 12.5 -1 2
59 12.5 -1 2
60 12.5 -1 2
61 12.5 -1 2
62 12.5 -1 2

Improper Coeffs # umbrella

1 20 0
2 20 0
3 20 0
4 20 0
5 20 0
6 20 0
7 20 0
8 20 0
9 20 0

Atoms # full

11272 1092 13 2.0000000000000000e-002 2.3586943330174346e+001 -4.4716822802008174e+001 1.0432567297695092e+001 0 -5 -10
7466 723 14 4.0000000000000001e-002 2.5673886154894575e+001 -3.8120497263565994e+001 1.0213563038776744e+001 0 -5 -10
4106 398 13 2.0000000000000000e-002 3.0247630754743820e+001 -4.3758333388773771e+001 1.0253284170809037e+001 0 -3 -7
1304 123 14 4.0000000000000001e-002 2.9789457872545189e+001 -4.7030129716247956e+001 5.1636302846833155e+000 0 -4 -10
7468 723 13 2.0000000000000000e-002 2.5975242864796961e+001 -3.9367198975565508e+001 1.0094358439604406e+001 0 -5 -10
115 7 13 2.0000000000000000e-002 2.9674813608648538e+001 -3.8025942335475818e+001 4.0578349387942545e+000 0 -4 -10
1270 122 13 2.0000000000000000e-002 2.7035264038275251e+001 -3.9178165245497595e+001 9.2198357905061954e+000 0 -4 -10
5115 495 13 2.0000000000000000e-002 2.5297307342762615e+001 -3.8173742616950143e+001 7.9623810347679731e+000 0 -6 -10
7379 715 13 2.0000000000000000e-002 2.7026478431615356e+001 -3.6757883419478368e+001 6.4191193551231862e+000 1 -6 -10
8767 847 13 2.0000000000000000e-002 2.8532325469402679e+001 -3.7918714053677618e+001 3.4754608917184648e+000 0 -5 -9
9249 897 13 2.0000000000000000e-002 4.2965969916041786e+001 -3.3128995851495027e+001 4.3535324020120933e+000 0 6 11
6680 644 13 2.0000000000000000e-002 3.9744626655083287e+001 -3.0898536527273318e+001 1.0510299676701390e+001 0 6 9
2358 224 14 4.0000000000000001e-002 2.3887560813563972e+001 -3.9156366571768231e+001 6.8674855871762155e+000 1 -6 -10
1282 122 13 2.0000000000000000e-002 2.7282941002093438e+001 -4.2603540367122413e+001 8.6050484273436609e+000 0 -4 -10
5120 496 13 2.0000000000000000e-002 2.5743890568672132e+001 -3.9473480796231343e+001 7.7217855069536849e+000 0 -6 -10
6431 622 15 -2.3669999999999999e-001 2.9465996865267329e+001 -3.9142774934726006e+001 7.1489851295180165e+000 0 -2 -2
8758 846 14 4.0000000000000001e-002 2.7877797275528081e+001 -3.9172054379729992e+001 3.2501083000789452e+000 0 -5 -9
2657 257 13 2.0000000000000000e-002 2.7857098986580276e+001 -4.0621513112334739e+001 5.6787553965216597e+000 0 -6 -10
1276 122 13 2.0000000000000000e-002 2.7020237779373446e+001 -4.1144289501086000e+001 9.4403401174917523e+000 0 -4 -10
7471 723 13 2.0000000000000000e-002 2.5372308067272318e+001 -4.0462475023167400e+001 3.1526352643770519e+000 0 -5 -9
1285 123 13 2.0000000000000000e-002 2.8663795727917080e+001 -4.2023931389054809e+001 7.0584544253310240e+000 0 -4 -10
7402 718 13 2.0000000000000000e-002 2.4908726385015033e+001 -4.5030924461982138e+001 6.2100364198283335e+000 1 -6 -10
10457 1013 13 2.0000000000000000e-002 4.1925430092024094e+001 -4.5900959398079976e+001 7.1358175175173786e+000 0 7 11
7477 723 14 4.0000000000000001e-002 2.5639732183937308e+001 -4.2598057586981689e+001 1.0385944195103971e+001 0 -5 -10
108 6 13 2.0000000000000000e-002 2.9529176325008979e+001 -4.0597737145405681e+001 4.1996326475319385e+000 0 -4 -10
10567 1023 13 2.0000000000000000e-002 4.2930044921476366e+001 -4.6254607206538729e+001 9.2207522037496048e+000 0 8 12
5099 493 13 2.0000000000000000e-002 2.5526746285502504e+001 -3.1863872013603729e+001 5.6776241080686445e+000 0 -6 -10
539 49 13 2.0000000000000000e-002 3.6521781145716076e+001 -4.6405616295278065e+001 4.2716508416582162e+000 0 5 8
2655 257 13 2.0000000000000000e-002 2.8807022353376290e+001 -3.9470416033800802e+001 5.2104960507837310e+000 0 -6 -10
2650 256 13 2.0000000000000000e-002 2.8385896381514545e+001 -3.8188255690137652e+001 5.6826478391452833e+000 0 -6 -10
12169 1181 15 -2.3669999999999999e-001 2.6713980153315291e+001 -3.8765143832794443e+001 4.6904769004967273e+000 1 -5 -9
7395 717 13 2.0000000000000000e-002 2.5759015310948286e+001 -4.2930209108660996e+001 6.2459461373930640e+000 1 -6 -10
113 7 13 2.0000000000000000e-002 3.0257554401680832e+001 -3.6749878851235096e+001 4.4562496244616279e+000 0 -4 -10
2662 258 13 2.0000000000000000e-002 2.7475090286203553e+001 -4.1877468177845898e+001 5.0166139705813526e+000 0 -6 -10
6447 623 13 2.0000000000000000e-002 3.0952748149415363e+001 -4.4306987696237726e+001 5.3492752686411791e+000 0 -2 -2
10272 996 13 2.0000000000000000e-002 3.2648423379762235e+001 -4.4385919914732924e+001 3.6872011010917727e+000 0 -3 -5
7450 722 13 2.0000000000000000e-002 2.6377877893201784e+001 -3.2761417525451193e+001 9.5484080669161617e+000 0 -5 -10
6432 622 13 2.0000000000000000e-002 3.1618218469897613e+001 -3.8734121523835697e+001 5.9192677787725012e+000 0 -2 -2
7696 744 13 2.0000000000000000e-002 2.8828423537304719e+001 -4.2413886432814934e+001 9.3071170633715194e+000 0 -3 -6
122 8 13 2.0000000000000000e-002 2.9818104277349292e+001 -3.5426754388964767e+001 4.0056143338009287e+000 0 -4 -10
11740 1140 13 2.0000000000000000e-002 4.2287899480788347e+001 -4.6161577412038582e+001 4.1249082027728896e+000 0 7 11
5572 541 13 2.0000000000000000e-002 4.1455707925044990e+001 -4.6171601125371105e+001 3.1289821511200486e+000 0 7 11
7393 717 13 2.0000000000000000e-002 2.6047973335762510e+001 -4.1816322363024476e+001 7.0828101898327809e+000 1 -6 -10
2674 260 13 2.0000000000000000e-002 2.5486515688303331e+001 -3.1643736488882013e+001 7.7081748686650791e+000 0 -6 -10
7486 723 13 2.0000000000000000e-002 2.6408034702313351e+001 -4.4927923725218115e+001 7.7030506927556592e+000 0 -5 -10
2669 259 13 2.0000000000000000e-002 2.6783084776945632e+001 -4.4571256315964732e+001 5.1074979254656165e+000 0 -6 -10
12173 1181 13 2.0000000000000000e-002 2.6121578180569585e+001 -3.9538335322701393e+001 4.7991749134863939e+000 1 -5 -9
9055 879 13 2.0000000000000000e-002 3.7652901773601542e+001 -3.0746978764431073e+001 4.2301267320128133e+000 0 4 8
7474 723 13 2.0000000000000000e-002 2.5993842877954172e+001 -4.1393334339739553e+001 1.0210366793936576e+001 0 -5 -10
8779 849 13 2.0000000000000000e-002 2.8270535920558881e+001 -3.1568892305253961e+001 3.8576182422758798e+000 0 -5 -9
7480 723 13 2.0000000000000000e-002 2.6311253581744399e+001 -4.3079587597415085e+001 9.2636505777940883e+000 0 -5 -10
4190 403 13 2.0000000000000000e-002 3.9871398205733911e+001 -4.6534432484507974e+001 6.7487994523390995e+000 0 6 10
6671 644 14 4.0000000000000001e-002 3.7936895078633711e+001 -3.0509019389910609e+001 7.8297346674802757e+000 0 6 9
12174 1181 14 4.0000000000000001e-002 2.4903136590279107e+001 -3.9093480221015234e+001 4.9932021021192448e+000 1 -5 -9
7462 722 13 2.0000000000000000e-002 2.6221526990385666e+001 -3.7044745257538978e+001 9.7112512613896680e+000 0 -5 -10
1256 121 13 2.0000000000000000e-002 2.7992169110729705e+001 -3.3536148976145306e+001 8.9437934335910647e+000 0 -4 -10
136 10 11 -4.1939999999999998e-003 2.8226942607773243e+001 -3.1381315991827726e+001 5.9080026862595423e+000 0 -4 -10
335 29 13 2.0000000000000000e-002 3.3267937906978837e+001 -4.6827222484834792e+001 3.9946656382803942e+000 0 -2 -6
1267 122 13 2.0000000000000000e-002 2.7703978076780921e+001 -3.8113106442888210e+001 8.7905358946389924e+000 0 -4 -10
4154 402 13 2.0000000000000000e-002 4.2662540818152301e+001 -3.6659547665708331e+001 6.8721672431667731e+000 0 6 10
5113 495 13 2.0000000000000000e-002 2.5294952922524015e+001 -3.6841396659066689e+001 7.3317786539433412e+000 0 -6 -10
2648 256 13 2.0000000000000000e-002 2.9163836968308296e+001 -3.6995856303881752e+001 5.1868359675373696e+000 0 -6 -10
7460 722 14 4.0000000000000001e-002 2.5828531893431879e+001 -3.5908707633009001e+001 1.0110768632733192e+001 0 -5 -10
4194 404 13 2.0000000000000000e-002 4.0765453361750012e+001 -4.7019486216124747e+001 7.6047943406180858e+000 0 6 10
1273 122 13 2.0000000000000000e-002 2.7732393569914272e+001 -4.0170884409675985e+001 8.9772263105106465e+000 0 -4 -10
1264 122 13 2.0000000000000000e-002 2.7316630991765756e+001 -3.6939610332431691e+001 9.0285778784799628e+000 0 -4 -10
375 35 14 4.0000000000000001e-002 3.3815154920222525e+001 -3.1168465990415218e+001 8.2103668943769286e+000 0 -3 -7
11293 1095 13 2.0000000000000000e-002 2.3834591460762216e+001 -3.2419441073348899e+001 7.8917012856522195e+000 0 -6 -10
10179 984 14 4.0000000000000001e-002 3.2045608842926086e+001 -3.3529685668367819e+001 8.9554022638075974e+000 0 -3 -6
1262 122 13 2.0000000000000000e-002 2.8030713611782563e+001 -3.5816897932019231e+001 8.9773129773237628e+000 0 -4 -10
5108 494 13 2.0000000000000000e-002 2.6039632714400497e+001 -3.5520170518205170e+001 7.2438838396631304e+000 0 -6 -10
10503 1020 14 4.0000000000000001e-002 4.2678821389620623e+001 -4.3453544256195620e+001 9.7037462960972345e+000 0 7 11
7407 719 14 4.0000000000000001e-002 2.3870764721660592e+001 -4.5683341583071012e+001 6.7625783572535356e+000 -1 -6 -10
2629 253 13 2.0000000000000000e-002 2.7332674908533473e+001 -3.5224736210747608e+001 7.2039048805696408e+000 0 -6 -10
2634 254 13 2.0000000000000000e-002 2.8140660998232381e+001 -3.6510822542410139e+001 7.0442083571683654e+000 0 -6 -10
7400 718 13 2.0000000000000000e-002 2.4667161144864195e+001 -4.3782742550234332e+001 6.6362401586928108e+000 1 -6 -10
2468 240 13 2.0000000000000000e-002 2.4896529917310975e+001 -4.1079871898734147e+001 5.9425848444221296e+000 1 -6 -10
12166 1181 13 2.0000000000000000e-002 2.6470276152014709e+001 -3.7427482908424047e+001 4.6533534271546841e+000 1 -5 -9
7484 723 13 2.0000000000000000e-002 2.5911909720126737e+001 -4.4165326880087015e+001 8.5502009739319806e+000 0 -5 -10
120 8 13 2.0000000000000000e-002 3.0705114171864832e+001 -3.4222348762317473e+001 4.1573147662390797e+000 0 -4 -10
10455 1013 13 2.0000000000000000e-002 4.2346207515791285e+001 -4.5491997809932542e+001 8.3872775921805065e+000 0 7 11
11307 1097 13 2.0000000000000000e-002 2.3659971708141466e+001 -3.7229114810235288e+001 9.3295167239721852e+000 0 -6 -10
2327 223 13 2.0000000000000000e-002 2.4386046677958678e+001 -3.1624763744233658e+001 3.9036811753275948e+000 1 -6 -10
6190 601 13 2.0000000000000000e-002 3.1777291132542359e+001 -4.4630981180571290e+001 8.5325457796300128e+000 0 -3 -6
4113 399 13 2.0000000000000000e-002 2.9870079074855092e+001 -4.6141361904705441e+001 1.0635294371981098e+001 0 -3 -7
2 1 13 2.0000000000000000e-002 2.9779169314874963e+001 -4.4051601818937804e+001 4.6699653111447663e+000 0 -4 -10
101 5 13 2.0000000000000000e-002 2.9199313141313958e+001 -4.2877839939591667e+001 4.2600445803213152e+000 0 -4 -10
7672 743 13 2.0000000000000000e-002 2.9185642996680954e+001 -3.3291691585543312e+001 9.0918412381218836e+000 0 -3 -6
5127 497 13 2.0000000000000000e-002 2.5194855589372693e+001 -4.2022862608033599e+001 8.0574867904010645e+000 0 -6 -10
6436 623 14 4.0000000000000001e-002 3.0994766684121632e+001 -3.9884216342293712e+001 6.0760041501591768e+000 0 -2 -2
5106 494 13 2.0000000000000000e-002 2.5367056939522406e+001 -3.4327012587440443e+001 6.9330781067437277e+000 0 -6 -10
1258 121 13 2.0000000000000000e-002 2.7466191913286636e+001 -3.4707118601709453e+001 9.1255648042516562e+000 0 -4 -10
1252 121 13 2.0000000000000000e-002 2.7467230760632191e+001 -3.2443187848559482e+001 8.9784110082815083e+000 0 -4 -10
4104 398 13 2.0000000000000000e-002 3.1119609082364931e+001 -4.2754730946029071e+001 1.0488298195559757e+001 0 -3 -7
7456 722 13 2.0000000000000000e-002 2.6382789053906269e+001 -3.4848835208067428e+001 9.7099629051041223e+000 0 -5 -10
5218 503 14 4.0000000000000001e-002 3.2869119193776683e+001 -4.6841396089751896e+001 6.9838425786160165e+000 0 -2 -2
11621 1124 14 4.0000000000000001e-002 4.2937540248148906e+001 -4.2334196951515160e+001 7.4350528871720165e+000 0 7 11
7386 716 13 2.0000000000000000e-002 2.6757713939970756e+001 -3.9373504378579007e+001 6.9728549834937619e+000 1 -6 -10
7698 744 13 2.0000000000000000e-002 2.9106149930754928e+001 -4.3619288135813207e+001 9.7339960194576580e+000 0 -3 -6
8654 841 14 4.0000000000000001e-002 2.7121788558364489e+001 -4.3990666293395819e+001 3.4203018749957006e+000 0 -5 -9
2627 253 14 4.0000000000000001e-002 2.7941624892359158e+001 -3.3822590042034783e+001 7.0542339515585581e+000 0 -6 -10
6441 623 13 2.0000000000000000e-002 3.1027635125124689e+001 -4.2068461394202480e+001 5.5244008899176986e+000 0 -2 -2
7453 722 13 2.0000000000000000e-002 2.5833622688031564e+001 -3.3818839180848272e+001 1.0157377916167466e+001 0 -5 -10
11471 1111 13 2.0000000000000000e-002 3.9593344892283987e+001 -3.5654165715066867e+001 5.9729878622371633e+000 0 5 8
2643 255 13 2.0000000000000000e-002 2.8663475466011612e+001 -3.5687239668957055e+001 5.4543248042835710e+000 0 -6 -10
3769 363 14 4.0000000000000001e-002 3.0497544215316918e+001 -4.2811138079747757e+001 7.8384083849903359e+000 0 -3 -6
7381 715 13 2.0000000000000000e-002 2.7400397217676502e+001 -3.8161716066051518e+001 6.5178799934687870e+000 1 -6 -10
7674 743 13 2.0000000000000000e-002 2.9739051417972071e+001 -3.4413142038365592e+001 9.3344182042258961e+000 0 -3 -6
7388 716 13 2.0000000000000000e-002 2.6970549085012273e+001 -4.0709875915123085e+001 6.6207830383738422e+000 1 -6 -10
7367 713 11 -4.1939999999999998e-003 2.7032240529445858e+001 -3.3218016454277851e+001 4.4543090198834943e+000 1 -6 -10
8781 849 13 2.0000000000000000e-002 2.8760587422141644e+001 -3.2918604976177406e+001 3.8440860429488071e+000 0 -5 -9
6454 623 13 2.0000000000000000e-002 3.0730036923719130e+001 -4.6269195132105914e+001 6.6098716392504588e+000 0 -2 -2
11624 1124 13 2.0000000000000000e-002 4.2351419573710857e+001 -4.3425330548108583e+001 7.5587108740770654e+000 0 7 11
106 6 13 2.0000000000000000e-002 2.9976488300262620e+001 -3.9336693854051667e+001 4.4591884820917267e+000 0 -4 -10
3776 363 14 4.0000000000000001e-002 2.9643570372720756e+001 -4.4998537466517952e+001 8.1627772462424737e+000 0 -3 -6
8760 846 13 2.0000000000000000e-002 2.8408905195983756e+001 -4.0475236705228909e+001 3.5966782369327852e+000 0 -5 -9
7971 771 11 -4.1939999999999998e-003 3.8237498463094973e+001 -4.6833829559106732e+001 1.0650701482373364e+001 0 7 10
1682 162 13 2.0000000000000000e-002 3.8828142433966143e+001 -4.6948650858980344e+001 6.0356967166740594e+000 0 7 10
1287 123 15 -2.3669999999999999e-001 2.9350312415711432e+001 -4.2800081681992054e+001 6.3426305995306489e+000 0 -4 -10
7692 743 13 2.0000000000000000e-002 2.9529031988500083e+001 -4.1345647112955824e+001 9.4241819066205554e+000 0 -3 -6
4099 397 13 2.0000000000000000e-002 3.0623093461690424e+001 -4.1490739476055204e+001 1.0083385824252973e+001 0 -3 -7
99 5 13 2.0000000000000000e-002 2.9999523593158990e+001 -4.1820560166068987e+001 4.7431520626849908e+000 0 -4 -10
10263 995 13 2.0000000000000000e-002 3.2972697549450963e+001 -4.2410706035900439e+001 5.1520888503664608e+000 0 -3 -5
1280 122 13 2.0000000000000000e-002 2.7971212808690399e+001 -4.1602056377679453e+001 8.7790520657962787e+000 0 -4 -10
12161 1181 13 2.0000000000000000e-002 2.5363014610601066e+001 -3.4676001986257774e+001 4.8328386670780592e+000 1 -5 -9
1249 121 13 2.0000000000000000e-002 2.7984258724704375e+001 -3.1232567176412360e+001 8.7308947875963661e+000 0 -4 -10
6435 623 13 2.0000000000000000e-002 2.9844935357627453e+001 -4.0195431176301703e+001 6.7314993326665080e+000 0 -2 -2
6438 623 13 2.0000000000000000e-002 3.1601195433407689e+001 -4.0971517584256659e+001 5.9330691415993000e+000 0 -2 -2
7365 713 13 2.0000000000000000e-002 2.6979003759713638e+001 -3.1791104182387386e+001 3.9033614952300018e+000 1 -6 -10
12164 1181 13 2.0000000000000000e-002 2.4805304445545996e+001 -3.5821998521249562e+001 5.0816154974689116e+000 1 -5 -9
7701 744 14 4.0000000000000001e-002 2.8514989726358852e+001 -4.4769566653656341e+001 9.8344899275378594e+000 0 -3 -6
1286 123 14 4.0000000000000001e-002 2.7795461410106487e+001 -4.2948985724154554e+001 7.5101390184347911e+000 0 -4 -10
4078 394 13 2.0000000000000000e-002 3.0636116479665787e+001 -3.4230312149483765e+001 1.0239587175484584e+001 0 -3 -7
10265 995 13 2.0000000000000000e-002 3.3225619846459118e+001 -4.2152678374846161e+001 3.7707409797062481e+000 0 -3 -5
10256 994 13 2.0000000000000000e-002 3.2135222591969324e+001 -4.0283376239603221e+001 3.6230075806374362e+000 0 -3 -5
10258 994 11 -4.1939999999999998e-003 3.2406126348277574e+001 -4.1530673855588837e+001 4.0474433886845862e+000 0 -3 -5
7703 744 15 -2.3669999999999999e-001 2.6892642020346980e+001 -4.6177911988366922e+001 9.1997761431015785e+000 0 -3 -6
4097 397 13 2.0000000000000000e-002 3.1179336224282377e+001 -4.0247945619626115e+001 1.0412812785083412e+001 0 -3 -7
7690 743 13 2.0000000000000000e-002 2.9067795573033969e+001 -4.0162420686170961e+001 9.0009545637765704e+000 0 -3 -6
8774 848 13 2.0000000000000000e-002 2.8609628374122856e+001 -3.5417016175905452e+001 3.5208236429098436e+000 0 -5 -9
7677 743 13 2.0000000000000000e-002 2.9301062295243632e+001 -3.5636466258153433e+001 9.0479152225930033e+000 0 -3 -6
8656 841 2 -4.2830000000000000e-002 2.5866812917497040e+001 -4.4438282381759514e+001 3.2356173181186021e+000 0 -5 -9
6430 622 14 4.0000000000000001e-002 3.1054555784746071e+001 -3.7589009881912347e+001 6.0126143391763707e+000 0 -2 -2
10270 996 13 2.0000000000000000e-002 3.2235690029552494e+001 -4.3127485823220425e+001 3.3981226393682382e+000 0 -3 -5
7683 743 13 2.0000000000000000e-002 2.9009922981632982e+001 -3.7997345352505221e+001 8.8779526000635034e+000 0 -3 -6
8765 847 14 4.0000000000000001e-002 2.7861963718520908e+001 -3.6648302166545960e+001 3.3419369134536576e+000 0 -5 -9
7686 743 13 2.0000000000000000e-002 2.9680746771993071e+001 -3.9043034569631097e+001 9.1641627018850560e+000 0 -3 -6
4092 396 13 2.0000000000000000e-002 3.0727585922594411e+001 -3.9063259048632467e+001 9.8948110597343764e+000 0 -3 -7
8772 848 14 4.0000000000000001e-002 2.8098883409712677e+001 -3.4110793178320492e+001 3.3583397482195947e+000 0 -5 -9
11316 1098 13 2.0000000000000000e-002 2.4058494707938536e+001 -4.0892538144729841e+001 9.1742497392608175e+000 0 -6 -10
8753 845 13 2.0000000000000000e-002 2.7986350390492102e+001 -4.2842586532647772e+001 3.7377923808298292e+000 0 -5 -9
127 9 13 2.0000000000000000e-002 2.9361602222327846e+001 -3.2260728981701099e+001 5.5699114182698386e+000 0 -4 -10
4085 395 13 2.0000000000000000e-002 3.0701512722908685e+001 -3.6755085308014230e+001 9.9757392011387243e+000 0 -3 -7
4090 396 13 2.0000000000000000e-002 3.1340305134965426e+001 -3.7944157820720299e+001 1.0467110145412205e+001 0 -3 -7
129 9 13 2.0000000000000000e-002 2.9849834838790951e+001 -3.3071726296359614e+001 4.4218552436248713e+000 0 -4 -10
7680 743 13 2.0000000000000000e-002 2.9630633257519055e+001 -3.6870917619212385e+001 9.2180907786417450e+000 0 -3 -6
7704 744 13 2.0000000000000000e-002 2.8692051831604335e+001 -4.5957070092227546e+001 1.0280966522885645e+001 0 -3 -6
4083 395 13 2.0000000000000000e-002 3.1335504638666723e+001 -3.5475817626330134e+001 1.0398328987246689e+001 0 -3 -7
2636 254 11 -4.1939999999999998e-003 2.9263487927853284e+001 -3.5637843181352537e+001 6.8503176746727350e+000 0 -6 -10
5122 496 13 2.0000000000000000e-002 2.5025056766213797e+001 -4.0666575578921666e+001 8.3356233148814241e+000 0 -6 -10
7374 714 13 2.0000000000000000e-002 2.7387057692244429e+001 -3.5713667077399990e+001 5.3342732345154840e+000 1 -6 -10
4111 399 13 2.0000000000000000e-002 3.0682047870296085e+001 -4.5033329102354664e+001 1.0612351780140564e+001 0 -3 -7
5101 493 13 2.0000000000000000e-002 2.6029242076087229e+001 -3.3087852917784296e+001 6.4788937164528129e+000 0 -6 -10
7372 714 13 2.0000000000000000e-002 2.6603916334115080e+001 -3.4578726081071089e+001 4.8543956384087465e+000 1 -6 -10
6426 622 13 2.0000000000000000e-002 3.1706638663715349e+001 -3.6410146295261079e+001 5.6667012102855976e+000 0 -2 -2
2641 255 13 2.0000000000000000e-002 2.9243463508370560e+001 -3.4530030035851880e+001 5.9525683210671172e+000 0 -6 -10
11738 1140 13 2.0000000000000000e-002 4.2647388316859008e+001 -4.3662400917917275e+001 4.6785821094756761e+000 0 7 11
5136 498 11 -4.1939999999999998e-003 2.4273910090278545e+001 -4.6061447222175481e+001 8.9836550000203559e+000 0 -6 -10
3766 363 13 2.0000000000000000e-002 3.1354529940327300e+001 -4.1838714474852175e+001 8.1375117359702802e+000 0 -3 -6
8751 845 13 2.0000000000000000e-002 2.7570459520810960e+001 -4.1559383209374893e+001 3.7381180274959567e+000 0 -5 -9
6184 601 13 2.0000000000000000e-002 3.2396850884023401e+001 -4.2327848427613347e+001 8.6857727888168910e+000 0 -3 -6
10182 984 13 2.0000000000000000e-002 3.1726051957122884e+001 -3.4648377964652177e+001 8.4878435638535485e+000 0 -3 -6
10277 997 13 2.0000000000000000e-002 3.1783216339218932e+001 -4.5353127260785882e+001 3.4279469511569811e+000 0 -3 -5
6677 644 14 4.0000000000000001e-002 3.8680559554646564e+001 -3.1071255236889108e+001 9.7909619503471585e+000 0 6 9
2664 258 13 2.0000000000000000e-002 2.6647955298909341e+001 -4.3095298654735799e+001 5.3340354483181178e+000 0 -6 -10
3763 363 14 4.0000000000000001e-002 3.1373058234754019e+001 -4.0492599481331915e+001 8.0806658942238307e+000 0 -3 -6
10 1 13 2.0000000000000000e-002 2.7654843423070474e+001 -4.6815841089359239e+001 4.9585129124784206e+000 0 -4 -10
3760 363 13 2.0000000000000000e-002 3.2307819787183860e+001 -3.9651933541194389e+001 8.5572598103761148e+000 0 -3 -6
12167 1181 14 4.0000000000000001e-002 2.5344671156568129e+001 -3.7028575984936175e+001 5.2060496302441068e+000 1 -5 -9
3742 362 13 2.0000000000000000e-002 3.0434420166219578e+001 -3.3182286613168181e+001 7.3264025023047514e+000 0 -3 -6
3772 363 13 2.0000000000000000e-002 3.0681866020749428e+001 -4.4135852234003970e+001 8.0917818206640462e+000 0 -3 -6
3745 362 13 2.0000000000000000e-002 3.0204669724980558e+001 -3.4366820473273243e+001 6.8459109979377200e+000 0 -3 -6
2676 260 13 2.0000000000000000e-002 2.7232523325941056e+001 -3.2738316900630480e+001 6.5254587276389726e+000 0 -6 -10
7700 744 13 2.0000000000000000e-002 2.7485444111415912e+001 -4.5002527880445186e+001 9.2376121982247010e+000 0 -3 -6
6193 601 13 2.0000000000000000e-002 3.2058691696780819e+001 -4.5905188221671800e+001 8.8658257496015747e+000 0 -3 -6
10176 984 13 2.0000000000000000e-002 3.1264634231215524e+001 -3.2783471134192929e+001 8.2623176756329251e+000 0 -3 -6
3758 363 13 2.0000000000000000e-002 3.2019742265515454e+001 -3.8488792946713993e+001 8.1203211445873542e+000 0 -3 -6
1288 123 13 2.0000000000000000e-002 2.7375083656688492e+001 -4.4161962873787125e+001 7.2783864860296958e+000 0 -4 -10
9254 898 14 4.0000000000000001e-002 4.2875596224859571e+001 -3.4693908279654721e+001 4.0353482452189020e+000 0 6 11
9191 889 13 2.0000000000000000e-002 3.9162503409335642e+001 -4.6759187962561974e+001 8.6628048288264257e+000 0 7 10
3748 362 13 2.0000000000000000e-002 3.0968225393393837e+001 -3.5159642997734160e+001 7.6126810933673292e+000 0 -3 -6
6423 622 13 2.0000000000000000e-002 3.1626192936837846e+001 -3.5075656050747007e+001 5.5270428947842207e+000 0 -2 -2
3754 362 13 2.0000000000000000e-002 3.1952216268019527e+001 -3.7191880643640410e+001 8.3442500987996926e+000 0 -3 -6
3752 362 14 4.0000000000000001e-002 3.1103527460148587e+001 -3.6467196988664540e+001 7.6069562885852591e+000 0 -3 -6
10249 993 13 2.0000000000000000e-002 3.2396654691666292e+001 -3.8238444014656729e+001 3.5514363023435225e+000 0 -3 -5
7985 773 13 2.0000000000000000e-002 4.1351320702087357e+001 -3.5909935486392527e+001 9.9349673594898071e+000 0 6 10
377 35 13 2.0000000000000000e-002 3.3383047062663515e+001 -3.2349204248057006e+001 7.5098903473284961e+000 0 -3 -7
6420 622 13 2.0000000000000000e-002 3.2512939150595102e+001 -3.4282736713674652e+001 4.8837657091376467e+000 0 -2 -2
1300 123 13 2.0000000000000000e-002 2.9851323426491032e+001 -4.5761437573039366e+001 5.0709381894852141e+000 0 -4 -10
8964 866 13 2.0000000000000000e-002 3.5786904405827528e+001 -4.6612915546077247e+001 3.1961177564329968e+000 0 5 8
3739 362 13 2.0000000000000000e-002 2.9760173018857408e+001 -3.2246447247524813e+001 6.7876960129095112e+000 0 -3 -6
6187 601 13 2.0000000000000000e-002 3.2553904437152838e+001 -4.3639833799724173e+001 8.7766770922017567e+000 0 -3 -6
5134 498 13 2.0000000000000000e-002 2.4932187198849327e+001 -4.4736412615737102e+001 8.9430539720684816e+000 0 -6 -10
7490 724 13 2.0000000000000000e-002 2.6048505336904466e+001 -4.6249242701571745e+001 7.7030038974328230e+000 0 -5 -10
11630 1124 13 2.0000000000000000e-002 4.2091252658747933e+001 -4.5040143705467500e+001 6.2077839388494418e+000 0 7 11
6429 622 13 2.0000000000000000e-002 3.0013291175606028e+001 -3.7924099504775270e+001 6.8193895127760227e+000 0 -2 -2
9198 890 13 2.0000000000000000e-002 4.0216118711402011e+001 -4.4359587681247596e+001 8.5320707433901095e+000 0 7 10
12182 1182 13 2.0000000000000000e-002 2.3447879091192029e+001 -4.1570994258923065e+001 4.7032131851431505e+000 1 -5 -9
12180 1182 13 2.0000000000000000e-002 2.4314767200555913e+001 -4.0770009811804677e+001 4.0134351344513020e+000 1 -5 -9
2671 259 13 2.0000000000000000e-002 2.5827799263490935e+001 -4.5467762647418773e+001 5.5185734504731778e+000 0 -6 -10
5175 502 13 2.0000000000000000e-002 3.4246992019238171e+001 -3.0922810904346736e+001 1.0031855921819176e+001 0 -2 -3
7 1 13 2.0000000000000000e-002 2.7698558991291407e+001 -4.5472859827702180e+001 4.7298413159531751e+000 0 -4 -10
4150 402 13 2.0000000000000000e-002 4.2915177646249965e+001 -3.4443540251055772e+001 7.2408458620668350e+000 0 6 10
7447 722 14 4.0000000000000001e-002 2.5792170918422958e+001 -3.1679064781725835e+001 9.6274079806794397e+000 0 -5 -10
10175 984 15 -2.3669999999999999e-001 3.2914085115619734e+001 -3.2189303114865140e+001 1.0289991267320676e+001 0 -3 -6
7461 722 15 -2.3669999999999999e-001 2.4327697498342371e+001 -3.7140983218319555e+001 3.5522251601810462e+000 0 -5 -9
10173 984 14 4.0000000000000001e-002 3.1552721015044554e+001 -3.1558518693713665e+001 8.5511594971708931e+000 0 -3 -6
1294 123 13 2.0000000000000000e-002 2.8211415870816474e+001 -4.6021060580919276e+001 6.7037682469826168e+000 0 -4 -10
4151 402 14 4.0000000000000001e-002 4.2504365534027826e+001 -3.5445924673159439e+001 6.5105273340118313e+000 0 6 10
11314 1098 13 2.0000000000000000e-002 2.3684984295904222e+001 -3.9566327607608805e+001 9.4951319016916393e+000 0 -6 -10
1291 123 14 4.0000000000000001e-002 2.8273815937346583e+001 -4.4691250763483261e+001 6.6541307597117028e+000 0 -4 -10
1290 123 13 2.0000000000000000e-002 2.9183346381141224e+001 -4.3750206515838478e+001 6.3566428800072821e+000 0 -4 -10
2620 252 13 2.0000000000000000e-002 2.5815271722545887e+001 -4.6890191435391500e+001 5.5439013162066786e+000 0 -5 -10
8659 841 14 4.0000000000000001e-002 2.6121005593751011e+001 -4.5718461088932919e+001 3.2248999853753806e+000 0 -5 -9
4 1 13 2.0000000000000000e-002 2.8923576577575929e+001 -4.5034443620266480e+001 4.6879674404527263e+000 0 -4 -10
8662 841 13 2.0000000000000000e-002 2.5419019484536438e+001 -4.6836428655664356e+001 3.2065358858802875e+000 0 -5 -9
4130 401 13 2.0000000000000000e-002 3.9569092173263208e+001 -3.1479667544531200e+001 3.9622512096413787e+000 0 6 10
2469 240 14 4.0000000000000001e-002 2.3808406065700293e+001 -4.1379474436413275e+001 6.7086212782083576e+000 1 -6 -10
6450 623 13 2.0000000000000000e-002 3.1514271911997341e+001 -4.5355762405922384e+001 6.0138491755652899e+000 0 -2 -2
6444 623 13 2.0000000000000000e-002 3.1561895368415197e+001 -4.3288712908416372e+001 5.8166418430610749e+000 0 -2 -2
6417 622 13 2.0000000000000000e-002 3.2513798557545130e+001 -3.2986968075517218e+001 4.8986018894690844e+000 0 -2 -2
7492 724 13 2.0000000000000000e-002 2.7174823661985844e+001 -4.6698538466080450e+001 7.1972648466737130e+000 0 -5 -10
3778 363 13 2.0000000000000000e-002 2.9707734470741485e+001 -4.6334739197737122e+001 8.4825018699387051e+000 0 -3 -6