LAMMPS data file. CGCMM style. atom_style full generated by VMD/TopoTools v1.7 on Thu Oct 28 19:15:18 +0800 2021
 12360 atoms
 13320 bonds
 23940 angles
 38940 dihedrals
 2640 impropers
 17 atom types
 17 bond types
 39 angle types
 62 dihedral types
 9 improper types
 -3.999999 90.000001  xlo xhi
 -52.200001 24.600002  ylo yhi
 -2.100000 15.900000  zlo zhi

 Bond Coeffs

 1 1365.78 1.155 #type0CN
 2 398.26 1.093 #type8N2H2
 3 1024.04 1.200 #type6C6O1 
 4 500.95 1.374 #type9CN
 5 362.01 1.100 #type2C8H3
 6 362.01 1.100 # type68CH
 7 509.51 1.359 #type6C12O2
 8 591.76 0.965 # type0OH
 9 517.41 1.528 # type0C3C3
 10 497.83 1.459 #type5C13C14
 11 362.01 1.100 #type8C14H7
 12 705.27 1.398 #type0CC
 13 362.01 1.100 #5type58CH
 14 705.27 1.398 #type13CC
 15 634.85 1.335 #type12CN
 16 398.26 1.093 #type6C3H1
 17 634.85 1.335 #type11CN

 Angle Coeffs

 1  50  180.0000 # 0_C_sp
 2  50  104.5100 # 3_O_sp3
 3  50  109.4710 # 14_C_sp3
 4  50  109.4710 # 14_C_sp3
 5  50  109.4710 # 14_C_sp3
 6  50  120 # 14_C_sp2
 7  50  120 # 14_C_sp2
 8  50  120 # 14_C_sp2
 9  50  120 # 0_C_sp2
 10  50  120 # 0_C_sp2
 11  50  120 # 0_C_sp2
 12  50  120 # 7_C_sp2
 13  50  120 # 7_C_sp2
 14  50  109.4710 # 14_C_sp3
 15  50  109.4710 # 14_C_sp3
 16  50  120 # 7_C_sp2
 17  50  109.4710 # 7_C_sp3
 18  50  109.4710 # 7_C_sp3
 19  50  109.4710 # 7_C_sp3
 20  50  120 # 7_C_sp2
 21  50  109.4710 # 14_C_sp3
 22  50  109.4710 # 14_C_sp3
 23  50  120 # 7_C_sp2
 24  50  109.4710 # 7_C_sp3
 25  50  109.4710 # 7_C_sp3
 26  50  109.4710 # 7_C_sp3
 27  50  120 # 0_C_sp2
 28  50  106.7000 # 10_N_sp3
 29  50  109.4710 # 14_C_sp3
 30  50  109.4710 # 14_C_sp3
 31  50  109.4710 # 14_C_sp3
 32  50  120 # 14_C_sp2
 33  50  109.4710 # 7_C_sp3
 34  50  109.4710 # 7_C_sp3
 35  50  106.7000 # 10_N_sp3
 36  50  120 # 10_N_sp2
 37  50  120 # 7_C_sp2
 38  50  120 # 0_C_sp2
 39  50  120 # 0_C_sp2

 Dihedral Coeffs

 1  0 1 1 #N1C1C3H
 2  0 1 1 #N1C1C3C3
 3  1 1 3 #C2C3C3H
 4  1 1 3 #C2C3C3C2
 5  1 1 3 #C2C3C2N3
 6  0.5 -1 6 #C2C3C2N2
 7  12.5 -1 2 #N3C2C2C2
 8  12.5 -1 2 #N3C2N2C2
 9  0.5 -1 6 #O2C2C3H
 10  0.5 -1 6 #O2C2C3C3
 11  0.5 -1 6 #O2C2C3C2
 12  12.5 -1 2 #O2C2C2C2
 13  12.5 -1 2 #O2C2C2C2
 14  1 1 3 #HC3C3H
 15  1 1 3 #HC3C3C2
 16  1 1 3 #HC3C2N3
 17  1 1 3 #HC3C3N2
 18  12.5 -1 2 #HC2C2C2
 19  12.5 -1 2 #HC2C2C3
 20  12.5 -1 2 #HC2C2C2
 21  0.5 -1 6 #HC3C2C2
 22  0.5 -1 6 #HC3C2C2
 23  12.5 -1 2 #O3C2C2C2
 24  12.5 -1 2 #O3C2C2C3
 25  12.5 -1 2 #O3C2C2C2
 26  1 1 3 #C1C3C3C3
 27  1 1 3 #C1C3C3H
 28  1 1 3 #C1C3C3C2
 29  12.5 -1 2 #C3C2C2C2
 30  12.5 -1 2 #C3C2C2C2
 31  0.5 -1 6 #C3C3C2C2
 32  0.5 -1 6 #C3C3C2C2
 33  12.5 -1 2 #C3C2N2C2
 34  1 1 3 #HN3C2C3
 35  0.5 -1 6 #HN3C2C2
 36  0.5 -1 6 #HN3C2N2
 37  1 1 3 #HC3C3C3
 38  1 1 3 #HC3C3H
 39  1 1 3 #HC3C3C2
 40  1 1 3 #C3C3C3C3
 41  1 1 3 #C3C3C3H
 42  1 1 3 #C3C3C3C2
 43  1 1 3 #C3C3C2N3
 44  0.5 -1 6 #C3C3C2N2
 45  0.5 -1 6 #HC3C2C2
 46  0.5 -1 6 #HC3C2C2
 47  1 1 3 #C2N3C2C3
 48  0.5 -1 6 #C2N3C2C2
 49  0.5 -1 6 #C2N3C2N2
 50  1 1 3 #C2C3C3H
 51  1 1 3 #C2C3C3C2
 52  1 -1 2 #C2C2O3H
 53  0.5 -1 6 #C2C2C3H
 54  0.5 -1 6 #C2C2C3C3
 55  0.5 -1 6 #C2C2C3C2
 56  12.5 -1 2 #C2C2C2C2
 57  12.5 -1 2 #C2C2C2C3
 58  12.5 -1 2 #C2C2C2C2
 59  12.5 -1 2 #C2C2N2C2
 60  12.5 -1 2 #N2C2C2C2
 61  12.5 -1 2 #N2C2C2C3
 62  12.5 -1 2 #N2C2N2C2

 Improper Coeffs

 1  20 0
 2  20 0
 3  20 0
 4  20 0
 5  20 0
 6  20 0
 7  20 0
 8  20 0
 9  20 0

 Masses

 1 14.006700 # 4_N_sp
 2 12.011000 # 7_C_sp2
 3 14.006700 # 10_N_sp3
 4 15.999400 # 13_O_sp2
 5 1.008000 # 1_H
 6 1.008000 # 3_H
 7 15.999400 # 3_O_sp3
 8 12.011000 # 0_C_sp
 9 12.011000 # 14_C_sp3
 10 1.008000 # 0_H
 11 12.011000 # 7_C_sp3
 12 1.008000 # 4_H
 13 12.011000 # 0_C_sp2
 14 12.011000 # 14_C_sp2
 15 14.006700 # 10_N_sp2
 16 15.999400 # O
 17 14.006700 # N

 Atoms # full

1 1 13 0.000000 -0.700000 4.800000 0.000000 # 7 
2 1 14 0.000000 0.700000 4.800000 0.000000 # 8 
3 1 15 0.000000 -1.400000 3.600000 0.000000 # 9 
4 1 2 0.000000 1.400000 3.600000 0.000000 # 10 
5 1 6 0.000000 2.400000 3.600000 0.000000 # 14 
6 1 13 0.000000 -0.700000 2.400000 0.000000 # 7 
7 1 14 0.000000 0.700000 2.400000 0.000000 # 8 
8 1 10 0.000000 -2.400000 1.200000 0.000000 # 4 
9 1 3 0.000000 -1.400000 1.200000 0.000000 # 11 
10 1 2 0.000000 1.400000 1.200000 0.000000 # 10 
11 1 4 0.000000 2.800000 1.200000 0.000000 # 12 
12 1 13 0.000000 -0.700000 0.000000 0.000000 # 7 
13 1 9 0.000000 0.700000 0.000000 0.000000 # 3 
14 1 5 0.000000 1.700000 0.000000 0.000000 # 13 
15 1 15 0.000000 -1.400000 -1.200000 0.000000 # 9 
16 1 11 0.000000 1.400000 -1.200000 0.000000 # 5 
17 1 6 0.000000 1.900000 -1.200000 0.870000 # 14 
18 1 6 0.000000 1.900000 -1.200000 -0.870000 # 14 
19 1 13 0.000000 -0.700000 -2.400000 0.000000 # 7 
20 1 14 0.000000 0.700000 -2.400000 0.000000 # 8 
21 1 15 0.000000 -1.400000 -3.600000 0.000000 # 9 
22 1 2 0.000000 1.400000 -3.600000 0.000000 # 10 
23 1 7 0.000000 2.800000 -3.600000 0.000000 # 15 
24 1 10 0.000000 3.300000 -3.600000 0.870000 # 4 
25 2 13 0.000000 -0.700000 -4.800000 0.000000 # 7 
26 2 14 0.000000 0.700000 -4.800000 0.000000 # 8 
27 2 15 0.000000 -1.400000 -6.000000 0.000000 # 9 
28 2 2 0.000000 1.400000 -6.000000 0.000000 # 10 
29 2 6 0.000000 2.400000 -6.000000 0.000000 # 14 
30 2 13 0.000000 -0.700000 -7.200000 0.000000 # 7 
31 2 14 0.000000 0.700000 -7.200000 0.000000 # 8 
32 2 10 0.000000 -2.400000 -8.400000 0.000000 # 4 
33 2 3 0.000000 -1.400000 -8.400000 0.000000 # 11 
34 2 2 0.000000 1.400000 -8.400000 0.000000 # 10 
35 2 4 0.000000 2.800000 -8.400000 0.000000 # 12 
36 2 13 0.000000 -0.700000 -9.600000 0.000000 # 7 
37 2 9 0.000000 0.700000 -9.600000 0.000000 # 3 
38 2 5 0.000000 1.700000 -9.600000 0.000000 # 13 
39 2 15 0.000000 -1.400000 -10.800000 0.000000 # 9 
40 2 11 0.000000 1.400000 -10.800000 0.000000 # 5 
41 2 6 0.000000 1.900000 -10.800000 0.870000 # 14 
42 2 6 0.000000 1.900000 -10.800000 -0.870000 # 14 
43 2 13 0.000000 -0.700000 -12.000000 0.000000 # 7 
44 2 14 0.000000 0.700000 -12.000000 0.000000 # 8 
45 2 15 0.000000 -1.400000 -13.200000 0.000000 # 9 
46 2 2 0.000000 1.400000 -13.200000 0.000000 # 10 
47 2 7 0.000000 2.800000 -13.200000 0.000000 # 15 
48 2 10 0.000000 3.300000 -13.200000 0.870000 # 4 
49 3 13 0.000000 -0.700000 -14.400000 0.000000 # 7 
50 3 14 0.000000 0.700000 -14.400000 0.000000 # 8 
51 3 15 0.000000 -1.400000 -15.600000 0.000000 # 9 
52 3 2 0.000000 1.400000 -15.600000 0.000000 # 10 
53 3 6 0.000000 2.400000 -15.600000 0.000000 # 14 
54 3 13 0.000000 -0.700000 -16.799999 0.000000 # 7 
55 3 14 0.000000 0.700000 -16.799999 0.000000 # 8 
56 3 10 0.000000 -2.400000 -18.000000 0.000000 # 4 
57 3 3 0.000000 -1.400000 -18.000000 0.000000 # 11 
58 3 2 0.000000 1.400000 -18.000000 0.000000 # 10 
59 3 4 0.000000 2.800000 -18.000000 0.000000 # 12 
60 3 13 0.000000 -0.700000 -19.200001 0.000000 # 7 
61 3 9 0.000000 0.700000 -19.200001 0.000000 # 3 
62 3 5 0.000000 1.700000 -19.200001 0.000000 # 13 
63 3 15 0.000000 -1.400000 -20.400000 0.000000 # 9 
64 3 11 0.000000 1.400000 -20.400000 0.000000 # 5 
65 3 6 0.000000 1.900000 -20.400000 0.870000 # 14 
66 3 6 0.000000 1.900000 -20.400000 -0.870000 # 14 
67 3 13 0.000000 -0.700000 -21.600000 0.000000 # 7 
68 3 14 0.000000 0.700000 -21.600000 0.000000 # 8 
69 3 15 0.000000 -1.400000 -22.799999 0.000000 # 9 
70 3 2 0.000000 1.400000 -22.799999 0.000000 # 10 
71 3 7 0.000000 2.800000 -22.799999 0.000000 # 15 
72 3 10 0.000000 3.300000 -22.799999 0.870000 # 4 
73 4 13 0.000000 -0.700000 -24.000000 0.000000 # 7 
74 4 14 0.000000 0.700000 -24.000000 0.000000 # 8 
75 4 15 0.000000 -1.400000 -25.200001 0.000000 # 9 
76 4 2 0.000000 1.400000 -25.200001 0.000000 # 10 
77 4 6 0.000000 2.400000 -25.200001 0.000000 # 14 
78 4 13 0.000000 -0.700000 -26.400000 0.000000 # 7 
79 4 14 0.000000 0.700000 -26.400000 0.000000 # 8 
80 4 10 0.000000 -2.400000 -27.600000 0.000000 # 4 
81 4 3 0.000000 -1.400000 -27.600000 0.000000 # 11 
82 4 2 0.000000 1.400000 -27.600000 0.000000 # 10 
83 4 4 0.000000 2.800000 -27.600000 0.000000 # 12 
84 4 13 0.000000 -0.700000 -28.799999 0.000000 # 7 
85 4 9 0.000000 0.700000 -28.799999 0.000000 # 3 
86 4 5 0.000000 1.700000 -28.799999 0.000000 # 13 
87 4 15 0.000000 -1.400000 -30.000000 0.000000 # 9 
88 4 11 0.000000 1.400000 -30.000000 0.000000 # 5 
89 4 6 0.000000 1.900000 -30.000000 0.870000 # 14 
90 4 6 0.000000 1.900000 -30.000000 -0.870000 # 14 
91 4 13 0.000000 -0.700000 -31.200001 0.000000 # 7 
92 4 14 0.000000 0.700000 -31.200001 0.000000 # 8 
93 4 15 0.000000 -1.400000 -32.400002 0.000000 # 9 
94 4 2 0.000000 1.400000 -32.400002 0.000000 # 10 
95 4 7 0.000000 2.800000 -32.400002 0.000000 # 15 
96 4 10 0.000000 3.300000 -32.400002 0.870000 # 4 
97 5 1 0.000000 -1.400000 6.000000 0.000000 # 1 
98 5 8 0.000000 -0.700000 7.200000 0.000000 # 2 
99 5 9 0.000000 0.700000 7.200000 0.000000 # 3 
100 5 10 0.000000 1.700000 7.200000 0.000000 # 4 
101 5 11 0.000000 1.400000 6.000000 0.000000 # 5 
102 5 12 0.000000 1.900000 6.000000 0.870000 # 6 
103 5 12 0.000000 1.900000 6.000000 -0.870000 # 6 
104 6 1 0.000000 -1.400000 8.400000 0.000000 # 1 
105 6 8 0.000000 -0.700000 9.600000 0.000000 # 2 
106 6 9 0.000000 0.700000 9.600000 0.000000 # 3 
107 6 10 0.000000 1.700000 9.600000 0.000000 # 4 
108 6 11 0.000000 1.400000 8.400000 0.000000 # 5 
109 6 12 0.000000 1.900000 8.400000 0.870000 # 6 
110 6 12 0.000000 1.900000 8.400000 -0.870000 # 6 
111 7 1 0.000000 -1.400000 10.800000 0.000000 # 1 
112 7 8 0.000000 -0.700000 12.000000 0.000000 # 2 
113 7 9 0.000000 0.700000 12.000000 0.000000 # 3 
114 7 10 0.000000 1.700000 12.000000 0.000000 # 4 
115 7 11 0.000000 1.400000 10.800000 0.000000 # 5 
116 7 12 0.000000 1.900000 10.800000 0.870000 # 6 
117 7 12 0.000000 1.900000 10.800000 -0.870000 # 6 
118 8 1 0.000000 -1.400000 13.200000 0.000000 # 1 
119 8 8 0.000000 -0.700000 14.400000 0.000000 # 2 
120 8 9 0.000000 0.700000 14.400000 0.000000 # 3 
121 8 10 0.000000 1.700000 14.400000 0.000000 # 4 
122 8 11 0.000000 1.400000 13.200000 0.000000 # 5 
123 8 12 0.000000 1.900000 13.200000 0.870000 # 6 
124 8 12 0.000000 1.900000 13.200000 -0.870000 # 6 
125 9 1 0.000000 -1.400000 15.600000 0.000000 # 1 
126 9 8 0.000000 -0.700000 16.799999 0.000000 # 2 
127 9 9 0.000000 0.700000 16.799999 0.000000 # 3 
128 9 10 0.000000 1.700000 16.799999 0.000000 # 4 
129 9 11 0.000000 1.400000 15.600000 0.000000 # 5 
130 9 12 0.000000 1.900000 15.600000 0.870000 # 6 
131 9 12 0.000000 1.900000 15.600000 -0.870000 # 6 
132 10 1 0.000000 -1.400000 18.000000 0.000000 # 1 
133 10 8 0.000000 -0.700000 19.200001 0.000000 # 2 
134 10 9 0.000000 0.700000 19.200001 0.000000 # 3 
135 10 10 0.000000 1.700000 19.200001 0.000000 # 4 
136 10 11 0.000000 1.400000 18.000000 0.000000 # 5 
137 10 12 0.000000 1.900000 18.000000 0.870000 # 6 
138 10 12 0.000000 1.900000 18.000000 -0.870000 # 6 
139 11 1 0.000000 -1.400000 20.400000 0.000000 # 1 
140 11 8 0.000000 -0.700000 21.600000 0.000000 # 2 
141 11 9 0.000000 0.700000 21.600000 0.000000 # 3 
142 11 10 0.000000 1.700000 21.600000 0.000000 # 4 
143 11 11 0.000000 1.400000 20.400000 0.000000 # 5 
144 11 12 0.000000 1.900000 20.400000 0.870000 # 6 
145 11 12 0.000000 1.900000 20.400000 -0.870000 # 6 
146 12 1 0.000000 -1.400000 22.799999 0.000000 # 1 
147 12 8 0.000000 -0.700000 24.000000 0.000000 # 2 
148 12 9 0.000000 0.700000 24.000000 0.000000 # 3 
149 12 10 0.000000 1.700000 24.000000 0.000000 # 4 
150 12 11 0.000000 1.400000 22.799999 0.000000 # 5 
151 12 12 0.000000 1.900000 22.799999 0.870000 # 6 
152 12 12 0.000000 1.900000 22.799999 -0.870000 # 6 
153 13 1 0.000000 -1.400000 -37.200001 0.000000 # 1 
154 13 8 0.000000 -0.700000 -36.000000 0.000000 # 2 
155 13 9 0.000000 0.700000 -36.000000 0.000000 # 3 
156 13 10 0.000000 1.700000 -36.000000 0.000000 # 4 
157 13 11 0.000000 1.400000 -37.200001 0.000000 # 5 
158 13 12 0.000000 1.900000 -37.200001 0.870000 # 6 
159 13 12 0.000000 1.900000 -37.200001 -0.870000 # 6 
160 14 1 0.000000 -1.400000 -39.599998 0.000000 # 1 
161 14 8 0.000000 -0.700000 -38.400002 0.000000 # 2 
162 14 9 0.000000 0.700000 -38.400002 0.000000 # 3 
163 14 10 0.000000 1.700000 -38.400002 0.000000 # 4 
164 14 11 0.000000 1.400000 -39.599998 0.000000 # 5 
165 14 12 0.000000 1.900000 -39.599998 0.870000 # 6 
166 14 12 0.000000 1.900000 -39.599998 -0.870000 # 6 
167 15 1 0.000000 -1.400000 -42.000000 0.000000 # 1 
168 15 8 0.000000 -0.700000 -40.799999 0.000000 # 2 
169 15 9 0.000000 0.700000 -40.799999 0.000000 # 3 
170 15 10 0.000000 1.700000 -40.799999 0.000000 # 4 
171 15 11 0.000000 1.400000 -42.000000 0.000000 # 5 
172 15 12 0.000000 1.900000 -42.000000 0.870000 # 6 
173 15 12 0.000000 1.900000 -42.000000 -0.870000 # 6 
174 16 1 0.000000 -1.400000 -44.400002 0.000000 # 1 
175 16 8 0.000000 -0.700000 -43.200001 0.000000 # 2 
176 16 9 0.000000 0.700000 -43.200001 0.000000 # 3 
177 16 10 0.000000 1.700000 -43.200001 0.000000 # 4 
178 16 11 0.000000 1.400000 -44.400002 0.000000 # 5 
179 16 12 0.000000 1.900000 -44.400002 0.870000 # 6 
180 16 12 0.000000 1.900000 -44.400002 -0.870000 # 6 
181 17 1 0.000000 -1.400000 -46.799999 0.000000 # 1 
182 17 8 0.000000 -0.700000 -45.599998 0.000000 # 2 
183 17 9 0.000000 0.700000 -45.599998 0.000000 # 3 
184 17 10 0.000000 1.700000 -45.599998 0.000000 # 4 
185 17 11 0.000000 1.400000 -46.799999 0.000000 # 5 
186 17 12 0.000000 1.900000 -46.799999 0.870000 # 6 
187 17 12 0.000000 1.900000 -46.799999 -0.870000 # 6 
188 18 1 0.000000 -1.400000 -49.200001 0.000000 # 1 
189 18 8 0.000000 -0.700000 -48.000000 0.000000 # 2 
190 18 9 0.000000 0.700000 -48.000000 0.000000 # 3 
191 18 10 0.000000 1.700000 -48.000000 0.000000 # 4 
192 18 11 0.000000 1.400000 -49.200001 0.000000 # 5 
193 18 12 0.000000 1.900000 -49.200001 0.870000 # 6 
194 18 12 0.000000 1.900000 -49.200001 -0.870000 # 6 
195 19 1 0.000000 -1.400000 -51.599998 0.000000 # 1 
196 19 8 0.000000 -0.700000 -50.400002 0.000000 # 2 
197 19 9 0.000000 0.700000 -50.400002 0.000000 # 3 
198 19 10 0.000000 1.700000 -50.400002 0.000000 # 4 
199 19 11 0.000000 1.400000 -51.599998 0.000000 # 5 
200 19 12 0.000000 1.900000 -51.599998 0.870000 # 6 
201 19 12 0.000000 1.900000 -51.599998 -0.870000 # 6 
202 20 13 0.000000 -0.700000 -33.599998 0.000000 # 7 
203 20 14 0.000000 0.700000 -33.599998 0.000000 # 8 
204 20 11 0.000000 1.400000 -34.799999 0.000000 # 5 
205 20 12 0.000000 1.900000 -34.799999 0.870000 # 6 
206 20 12 0.000000 1.900000 -34.799999 -0.870000 # 6 
207 21 13 0.000000 14.800000 4.800000 0.000000 # 7 
208 21 14 0.000000 16.200001 4.800000 0.000000 # 8 
209 21 15 0.000000 14.100000 3.600000 0.000000 # 9 
210 21 2 0.000000 16.900000 3.600000 0.000000 # 10 
211 21 6 0.000000 17.900000 3.600000 0.000000 # 14 
212 21 13 0.000000 14.800000 2.400000 0.000000 # 7 
213 21 14 0.000000 16.200001 2.400000 0.000000 # 8 
214 21 10 0.000000 13.100000 1.200000 0.000000 # 4 
215 21 3 0.000000 14.100000 1.200000 0.000000 # 11 
216 21 2 0.000000 16.900000 1.200000 0.000000 # 10 
217 21 4 0.000000 18.299999 1.200000 0.000000 # 12 
218 21 13 0.000000 14.800000 0.000000 0.000000 # 7 
219 21 9 0.000000 16.200001 0.000000 0.000000 # 3 
220 21 5 0.000000 17.200001 0.000000 0.000000 # 13 
221 21 15 0.000000 14.100000 -1.200000 0.000000 # 9 
222 21 11 0.000000 16.900000 -1.200000 0.000000 # 5 
223 21 6 0.000000 17.400000 -1.200000 0.870000 # 14 
224 21 6 0.000000 17.400000 -1.200000 -0.870000 # 14 
225 21 13 0.000000 14.800000 -2.400000 0.000000 # 7 
226 21 14 0.000000 16.200001 -2.400000 0.000000 # 8 
227 21 15 0.000000 14.100000 -3.600000 0.000000 # 9 
228 21 2 0.000000 16.900000 -3.600000 0.000000 # 10 
229 21 7 0.000000 18.299999 -3.600000 0.000000 # 15 
230 21 10 0.000000 18.799999 -3.600000 0.870000 # 4 
231 22 13 0.000000 14.800000 -4.800000 0.000000 # 7 
232 22 14 0.000000 16.200001 -4.800000 0.000000 # 8 
233 22 15 0.000000 14.100000 -6.000000 0.000000 # 9 
234 22 2 0.000000 16.900000 -6.000000 0.000000 # 10 
235 22 6 0.000000 17.900000 -6.000000 0.000000 # 14 
236 22 13 0.000000 14.800000 -7.200000 0.000000 # 7 
237 22 14 0.000000 16.200001 -7.200000 0.000000 # 8 
238 22 10 0.000000 13.100000 -8.400000 0.000000 # 4 
239 22 3 0.000000 14.100000 -8.400000 0.000000 # 11 
240 22 2 0.000000 16.900000 -8.400000 0.000000 # 10 
241 22 4 0.000000 18.299999 -8.400000 0.000000 # 12 
242 22 13 0.000000 14.800000 -9.600000 0.000000 # 7 
243 22 9 0.000000 16.200001 -9.600000 0.000000 # 3 
244 22 5 0.000000 17.200001 -9.600000 0.000000 # 13 
245 22 15 0.000000 14.100000 -10.800000 0.000000 # 9 
246 22 11 0.000000 16.900000 -10.800000 0.000000 # 5 
247 22 6 0.000000 17.400000 -10.800000 0.870000 # 14 
248 22 6 0.000000 17.400000 -10.800000 -0.870000 # 14 
249 22 13 0.000000 14.800000 -12.000000 0.000000 # 7 
250 22 14 0.000000 16.200001 -12.000000 0.000000 # 8 
251 22 15 0.000000 14.100000 -13.200000 0.000000 # 9 
252 22 2 0.000000 16.900000 -13.200000 0.000000 # 10 
253 22 7 0.000000 18.299999 -13.200000 0.000000 # 15 
254 22 10 0.000000 18.799999 -13.200000 0.870000 # 4 
255 23 13 0.000000 14.800000 -14.400000 0.000000 # 7 
256 23 14 0.000000 16.200001 -14.400000 0.000000 # 8 
257 23 15 0.000000 14.100000 -15.600000 0.000000 # 9 
258 23 2 0.000000 16.900000 -15.600000 0.000000 # 10 
259 23 6 0.000000 17.900000 -15.600000 0.000000 # 14 
260 23 13 0.000000 14.800000 -16.799999 0.000000 # 7 
261 23 14 0.000000 16.200001 -16.799999 0.000000 # 8 
262 23 10 0.000000 13.100000 -18.000000 0.000000 # 4 
263 23 3 0.000000 14.100000 -18.000000 0.000000 # 11 
264 23 2 0.000000 16.900000 -18.000000 0.000000 # 10 
265 23 4 0.000000 18.299999 -18.000000 0.000000 # 12 
266 23 13 0.000000 14.800000 -19.200001 0.000000 # 7 
267 23 9 0.000000 16.200001 -19.200001 0.000000 # 3 
268 23 5 0.000000 17.200001 -19.200001 0.000000 # 13 
269 23 15 0.000000 14.100000 -20.400000 0.000000 # 9 
270 23 11 0.000000 16.900000 -20.400000 0.000000 # 5 
271 23 6 0.000000 17.400000 -20.400000 0.870000 # 14 
272 23 6 0.000000 17.400000 -20.400000 -0.870000 # 14 
273 23 13 0.000000 14.800000 -21.600000 0.000000 # 7 
274 23 14 0.000000 16.200001 -21.600000 0.000000 # 8 
275 23 15 0.000000 14.100000 -22.799999 0.000000 # 9 
276 23 2 0.000000 16.900000 -22.799999 0.000000 # 10 
277 23 7 0.000000 18.299999 -22.799999 0.000000 # 15 
278 23 10 0.000000 18.799999 -22.799999 0.870000 # 4 
279 24 13 0.000000 14.800000 -24.000000 0.000000 # 7 
280 24 14 0.000000 16.200001 -24.000000 0.000000 # 8 
281 24 15 0.000000 14.100000 -25.200001 0.000000 # 9 
282 24 2 0.000000 16.900000 -25.200001 0.000000 # 10 
283 24 6 0.000000 17.900000 -25.200001 0.000000 # 14 
284 24 13 0.000000 14.800000 -26.400000 0.000000 # 7 
285 24 14 0.000000 16.200001 -26.400000 0.000000 # 8 
286 24 10 0.000000 13.100000 -27.600000 0.000000 # 4 
287 24 3 0.000000 14.100000 -27.600000 0.000000 # 11 
288 24 2 0.000000 16.900000 -27.600000 0.000000 # 10 
289 24 4 0.000000 18.299999 -27.600000 0.000000 # 12 
290 24 13 0.000000 14.800000 -28.799999 0.000000 # 7 
291 24 9 0.000000 16.200001 -28.799999 0.000000 # 3 
292 24 5 0.000000 17.200001 -28.799999 0.000000 # 13 
293 24 15 0.000000 14.100000 -30.000000 0.000000 # 9 
294 24 11 0.000000 16.900000 -30.000000 0.000000 # 5 
295 24 6 0.000000 17.400000 -30.000000 0.870000 # 14 
296 24 6 0.000000 17.400000 -30.000000 -0.870000 # 14 
297 24 13 0.000000 14.800000 -31.200001 0.000000 # 7 
298 24 14 0.000000 16.200001 -31.200001 0.000000 # 8 
299 24 15 0.000000 14.100000 -32.400002 0.000000 # 9 
300 24 2 0.000000 16.900000 -32.400002 0.000000 # 10 
301 24 7 0.000000 18.299999 -32.400002 0.000000 # 15 
302 24 10 0.000000 18.799999 -32.400002 0.870000 # 4 
303 25 1 0.000000 14.100000 6.000000 0.000000 # 1 
304 25 8 0.000000 14.800000 7.200000 0.000000 # 2 
305 25 9 0.000000 16.200001 7.200000 0.000000 # 3 
306 25 10 0.000000 17.200001 7.200000 0.000000 # 4 
307 25 11 0.000000 16.900000 6.000000 0.000000 # 5 
308 25 12 0.000000 17.400000 6.000000 0.870000 # 6 
309 25 12 0.000000 17.400000 6.000000 -0.870000 # 6 
310 26 1 0.000000 14.100000 8.400000 0.000000 # 1 
311 26 8 0.000000 14.800000 9.600000 0.000000 # 2 
312 26 9 0.000000 16.200001 9.600000 0.000000 # 3 
313 26 10 0.000000 17.200001 9.600000 0.000000 # 4 
314 26 11 0.000000 16.900000 8.400000 0.000000 # 5 
315 26 12 0.000000 17.400000 8.400000 0.870000 # 6 
316 26 12 0.000000 17.400000 8.400000 -0.870000 # 6 
317 27 1 0.000000 14.100000 10.800000 0.000000 # 1 
318 27 8 0.000000 14.800000 12.000000 0.000000 # 2 
319 27 9 0.000000 16.200001 12.000000 0.000000 # 3 
320 27 10 0.000000 17.200001 12.000000 0.000000 # 4 
321 27 11 0.000000 16.900000 10.800000 0.000000 # 5 
322 27 12 0.000000 17.400000 10.800000 0.870000 # 6 
323 27 12 0.000000 17.400000 10.800000 -0.870000 # 6 
324 28 1 0.000000 14.100000 13.200000 0.000000 # 1 
325 28 8 0.000000 14.800000 14.400000 0.000000 # 2 
326 28 9 0.000000 16.200001 14.400000 0.000000 # 3 
327 28 10 0.000000 17.200001 14.400000 0.000000 # 4 
328 28 11 0.000000 16.900000 13.200000 0.000000 # 5 
329 28 12 0.000000 17.400000 13.200000 0.870000 # 6 
330 28 12 0.000000 17.400000 13.200000 -0.870000 # 6 
331 29 1 0.000000 14.100000 15.600000 0.000000 # 1 
332 29 8 0.000000 14.800000 16.799999 0.000000 # 2 
333 29 9 0.000000 16.200001 16.799999 0.000000 # 3 
334 29 10 0.000000 17.200001 16.799999 0.000000 # 4 
335 29 11 0.000000 16.900000 15.600000 0.000000 # 5 
336 29 12 0.000000 17.400000 15.600000 0.870000 # 6 
337 29 12 0.000000 17.400000 15.600000 -0.870000 # 6 
338 30 1 0.000000 14.100000 18.000000 0.000000 # 1 
339 30 8 0.000000 14.800000 19.200001 0.000000 # 2 
340 30 9 0.000000 16.200001 19.200001 0.000000 # 3 
341 30 10 0.000000 17.200001 19.200001 0.000000 # 4 
342 30 11 0.000000 16.900000 18.000000 0.000000 # 5 
343 30 12 0.000000 17.400000 18.000000 0.870000 # 6 
344 30 12 0.000000 17.400000 18.000000 -0.870000 # 6 
345 31 1 0.000000 14.100000 20.400000 0.000000 # 1 
346 31 8 0.000000 14.800000 21.600000 0.000000 # 2 
347 31 9 0.000000 16.200001 21.600000 0.000000 # 3 
348 31 10 0.000000 17.200001 21.600000 0.000000 # 4 
349 31 11 0.000000 16.900000 20.400000 0.000000 # 5 
350 31 12 0.000000 17.400000 20.400000 0.870000 # 6 
351 31 12 0.000000 17.400000 20.400000 -0.870000 # 6 
352 32 1 0.000000 14.100000 22.799999 0.000000 # 1 
353 32 8 0.000000 14.800000 24.000000 0.000000 # 2 
354 32 9 0.000000 16.200001 24.000000 0.000000 # 3 
355 32 10 0.000000 17.200001 24.000000 0.000000 # 4 
356 32 11 0.000000 16.900000 22.799999 0.000000 # 5 
357 32 12 0.000000 17.400000 22.799999 0.870000 # 6 
358 32 12 0.000000 17.400000 22.799999 -0.870000 # 6 
359 33 1 0.000000 14.100000 -37.200001 0.000000 # 1 
360 33 8 0.000000 14.800000 -36.000000 0.000000 # 2 
361 33 9 0.000000 16.200001 -36.000000 0.000000 # 3 
362 33 10 0.000000 17.200001 -36.000000 0.000000 # 4 
363 33 11 0.000000 16.900000 -37.200001 0.000000 # 5 
364 33 12 0.000000 17.400000 -37.200001 0.870000 # 6 
365 33 12 0.000000 17.400000 -37.200001 -0.870000 # 6 
366 34 1 0.000000 14.100000 -39.599998 0.000000 # 1 
367 34 8 0.000000 14.800000 -38.400002 0.000000 # 2 
368 34 9 0.000000 16.200001 -38.400002 0.000000 # 3 
369 34 10 0.000000 17.200001 -38.400002 0.000000 # 4 
370 34 11 0.000000 16.900000 -39.599998 0.000000 # 5 
371 34 12 0.000000 17.400000 -39.599998 0.870000 # 6 
372 34 12 0.000000 17.400000 -39.599998 -0.870000 # 6 
373 35 1 0.000000 14.100000 -42.000000 0.000000 # 1 
374 35 8 0.000000 14.800000 -40.799999 0.000000 # 2 
375 35 9 0.000000 16.200001 -40.799999 0.000000 # 3 
376 35 10 0.000000 17.200001 -40.799999 0.000000 # 4 
377 35 11 0.000000 16.900000 -42.000000 0.000000 # 5 
378 35 12 0.000000 17.400000 -42.000000 0.870000 # 6 
379 35 12 0.000000 17.400000 -42.000000 -0.870000 # 6 
380 36 1 0.000000 14.100000 -44.400002 0.000000 # 1 
381 36 8 0.000000 14.800000 -43.200001 0.000000 # 2 
382 36 9 0.000000 16.200001 -43.200001 0.000000 # 3 
383 36 10 0.000000 17.200001 -43.200001 0.000000 # 4 
384 36 11 0.000000 16.900000 -44.400002 0.000000 # 5 
385 36 12 0.000000 17.400000 -44.400002 0.870000 # 6 
386 36 12 0.000000 17.400000 -44.400002 -0.870000 # 6 
387 37 1 0.000000 14.100000 -46.799999 0.000000 # 1 
388 37 8 0.000000 14.800000 -45.599998 0.000000 # 2 
389 37 9 0.000000 16.200001 -45.599998 0.000000 # 3 
390 37 10 0.000000 17.200001 -45.599998 0.000000 # 4 
391 37 11 0.000000 16.900000 -46.799999 0.000000 # 5 
392 37 12 0.000000 17.400000 -46.799999 0.870000 # 6 
393 37 12 0.000000 17.400000 -46.799999 -0.870000 # 6 
394 38 1 0.000000 14.100000 -49.200001 0.000000 # 1 
395 38 8 0.000000 14.800000 -48.000000 0.000000 # 2 
396 38 9 0.000000 16.200001 -48.000000 0.000000 # 3 
397 38 10 0.000000 17.200001 -48.000000 0.000000 # 4 
398 38 11 0.000000 16.900000 -49.200001 0.000000 # 5 
399 38 12 0.000000 17.400000 -49.200001 0.870000 # 6 
400 38 12 0.000000 17.400000 -49.200001 -0.870000 # 6 
401 39 1 0.000000 14.100000 -51.599998 0.000000 # 1 
402 39 8 0.000000 14.800000 -50.400002 0.000000 # 2 
403 39 9 0.000000 16.200001 -50.400002 0.000000 # 3 
404 39 10 0.000000 17.200001 -50.400002 0.000000 # 4 
405 39 11 0.000000 16.900000 -51.599998 0.000000 # 5 
406 39 12 0.000000 17.400000 -51.599998 0.870000 # 6 
407 39 12 0.000000 17.400000 -51.599998 -0.870000 # 6 
408 40 13 0.000000 14.800000 -33.599998 0.000000 # 7 
409 40 14 0.000000 16.200001 -33.599998 0.000000 # 8 
410 40 11 0.000000 16.900000 -34.799999 0.000000 # 5 
411 40 12 0.000000 17.400000 -34.799999 0.870000 # 6 
412 40 12 0.000000 17.400000 -34.799999 -0.870000 # 6 
413 41 13 0.000000 30.299999 4.800000 0.000000 # 7 
414 41 14 0.000000 31.700001 4.800000 0.000000 # 8 
415 41 15 0.000000 29.600000 3.600000 0.000000 # 9 
416 41 2 0.000000 32.400002 3.600000 0.000000 # 10 
417 41 6 0.000000 33.400002 3.600000 0.000000 # 14 
418 41 13 0.000000 30.299999 2.400000 0.000000 # 7 
419 41 14 0.000000 31.700001 2.400000 0.000000 # 8 
420 41 10 0.000000 28.600000 1.200000 0.000000 # 4 
421 41 3 0.000000 29.600000 1.200000 0.000000 # 11 
422 41 2 0.000000 32.400002 1.200000 0.000000 # 10 
423 41 4 0.000000 33.799999 1.200000 0.000000 # 12 
424 41 13 0.000000 30.299999 0.000000 0.000000 # 7 
425 41 9 0.000000 31.700001 0.000000 0.000000 # 3 
426 41 5 0.000000 32.700001 0.000000 0.000000 # 13 
427 41 15 0.000000 29.600000 -1.200000 0.000000 # 9 
428 41 11 0.000000 32.400002 -1.200000 0.000000 # 5 
429 41 6 0.000000 32.900002 -1.200000 0.870000 # 14 
430 41 6 0.000000 32.900002 -1.200000 -0.870000 # 14 
431 41 13 0.000000 30.299999 -2.400000 0.000000 # 7 
432 41 14 0.000000 31.700001 -2.400000 0.000000 # 8 
433 41 15 0.000000 29.600000 -3.600000 0.000000 # 9 
434 41 2 0.000000 32.400002 -3.600000 0.000000 # 10 
435 41 7 0.000000 33.799999 -3.600000 0.000000 # 15 
436 41 10 0.000000 34.299999 -3.600000 0.870000 # 4 
437 42 13 0.000000 30.299999 -4.800000 0.000000 # 7 
438 42 14 0.000000 31.700001 -4.800000 0.000000 # 8 
439 42 15 0.000000 29.600000 -6.000000 0.000000 # 9 
440 42 2 0.000000 32.400002 -6.000000 0.000000 # 10 
441 42 6 0.000000 33.400002 -6.000000 0.000000 # 14 
442 42 13 0.000000 30.299999 -7.200000 0.000000 # 7 
443 42 14 0.000000 31.700001 -7.200000 0.000000 # 8 
444 42 10 0.000000 28.600000 -8.400000 0.000000 # 4 
445 42 3 0.000000 29.600000 -8.400000 0.000000 # 11 
446 42 2 0.000000 32.400002 -8.400000 0.000000 # 10 
447 42 4 0.000000 33.799999 -8.400000 0.000000 # 12 
448 42 13 0.000000 30.299999 -9.600000 0.000000 # 7 
449 42 9 0.000000 31.700001 -9.600000 0.000000 # 3 
450 42 5 0.000000 32.700001 -9.600000 0.000000 # 13 
451 42 15 0.000000 29.600000 -10.800000 0.000000 # 9 
452 42 11 0.000000 32.400002 -10.800000 0.000000 # 5 
453 42 6 0.000000 32.900002 -10.800000 0.870000 # 14 
454 42 6 0.000000 32.900002 -10.800000 -0.870000 # 14 
455 42 13 0.000000 30.299999 -12.000000 0.000000 # 7 
456 42 14 0.000000 31.700001 -12.000000 0.000000 # 8 
457 42 15 0.000000 29.600000 -13.200000 0.000000 # 9 
458 42 2 0.000000 32.400002 -13.200000 0.000000 # 10 
459 42 7 0.000000 33.799999 -13.200000 0.000000 # 15 
460 42 10 0.000000 34.299999 -13.200000 0.870000 # 4 
461 43 13 0.000000 30.299999 -14.400000 0.000000 # 7 
462 43 14 0.000000 31.700001 -14.400000 0.000000 # 8 
463 43 15 0.000000 29.600000 -15.600000 0.000000 # 9 
464 43 2 0.000000 32.400002 -15.600000 0.000000 # 10 
465 43 6 0.000000 33.400002 -15.600000 0.000000 # 14 
466 43 13 0.000000 30.299999 -16.799999 0.000000 # 7 
467 43 14 0.000000 31.700001 -16.799999 0.000000 # 8 
468 43 10 0.000000 28.600000 -18.000000 0.000000 # 4 
469 43 3 0.000000 29.600000 -18.000000 0.000000 # 11 
470 43 2 0.000000 32.400002 -18.000000 0.000000 # 10 
471 43 4 0.000000 33.799999 -18.000000 0.000000 # 12 
472 43 13 0.000000 30.299999 -19.200001 0.000000 # 7 
473 43 9 0.000000 31.700001 -19.200001 0.000000 # 3 
474 43 5 0.000000 32.700001 -19.200001 0.000000 # 13 
475 43 15 0.000000 29.600000 -20.400000 0.000000 # 9 
476 43 11 0.000000 32.400002 -20.400000 0.000000 # 5 
477 43 6 0.000000 32.900002 -20.400000 0.870000 # 14 
478 43 6 0.000000 32.900002 -20.400000 -0.870000 # 14 
479 43 13 0.000000 30.299999 -21.600000 0.000000 # 7 
480 43 14 0.000000 31.700001 -21.600000 0.000000 # 8 
481 43 15 0.000000 29.600000 -22.799999 0.000000 # 9 
482 43 2 0.000000 32.400002 -22.799999 0.000000 # 10 
483 43 7 0.000000 33.799999 -22.799999 0.000000 # 15 
484 43 10 0.000000 34.299999 -22.799999 0.870000 # 4 
485 44 13 0.000000 30.299999 -24.000000 0.000000 # 7 
486 44 14 0.000000 31.700001 -24.000000 0.000000 # 8 