LAMMPS data file via write_data, version 22 Aug 2018, timestep = 74934

4264 atoms
18 atom types
5272 bonds
18 bond types
8412 angles
39 angle types
13087 dihedrals
62 dihedral types
2054 impropers
9 improper types

1.4744953955749182e+001 7.1255048044234883e+001 xlo xhi
-4.7079314502225209e+001 1.9479315502225212e+001 ylo yhi
1.4894590766333842e+000 1.2310540923366670e+001 zlo zhi

Masses

1 14.0067
2 12.011
3 14.0067
4 15.9994
5 1.008
6 1.008
7 15.9994
8 12.011
9 12.011
10 1.008
11 12.011
12 1.008
13 12.011
14 12.011
15 14.0067
16 15.9994
17 14.0067
18 12.011


Bond Coeffs # harmonic

1 1365.78 1.155
2 398.26 1.093
3 1024.04 1.2
4 500.95 1.374
5 362.01 1.1
6 362.01 1.1
7 509.51 1.359
8 591.76 0.965
9 517.41 1.528
10 497.83 1.459
11 362.01 1.1
12 705.27 1.398
13 362.01 1.1
14 705.27 1.398
15 634.85 1.335
16 398.26 1.093
17 634.85 1.335
18 867.4 1.238

Angle Coeffs # harmonic

1 50 180
2 50 104.51
3 50 109.471
4 50 109.471
5 50 109.471
6 50 120
7 50 120
8 50 120
9 50 120
10 50 120
11 50 120
12 50 120
13 50 120
14 50 109.471
15 50 109.471
16 50 120
17 50 109.471
18 50 109.471
19 50 109.471
20 50 120
21 50 109.471
22 50 109.471
23 50 120
24 50 109.471
25 50 109.471
26 50 109.471
27 50 120
28 50 106.7
29 50 109.471
30 50 109.471
31 50 109.471
32 50 120
33 50 109.471
34 50 109.471
35 50 106.7
36 50 120
37 50 120
38 50 120
39 50 120

Dihedral Coeffs # harmonic

1 0 1 1
2 0 1 1
3 1 1 3
4 1 1 3
5 1 1 3
6 0.5 -1 6
7 12.5 -1 2
8 12.5 -1 2
9 0.5 -1 6
10 0.5 -1 6
11 0.5 -1 6
12 12.5 -1 2
13 12.5 -1 2
14 1 1 3
15 1 1 3
16 1 1 3
17 1 1 3
18 12.5 -1 2
19 12.5 -1 2
20 12.5 -1 2
21 0.5 -1 6
22 0.5 -1 6
23 12.5 -1 2
24 12.5 -1 2
25 12.5 -1 2
26 1 1 3
27 1 1 3
28 1 1 3
29 12.5 -1 2
30 12.5 -1 2
31 0.5 -1 6
32 0.5 -1 6
33 12.5 -1 2
34 1 1 3
35 0.5 -1 6
36 0.5 -1 6
37 1 1 3
38 1 1 3
39 1 1 3
40 1 1 3
41 1 1 3
42 1 1 3
43 1 1 3
44 0.5 -1 6
45 0.5 -1 6
46 0.5 -1 6
47 1 1 3
48 0.5 -1 6
49 0.5 -1 6
50 1 1 3
51 1 1 3
52 1 -1 2
53 0.5 -1 6
54 0.5 -1 6
55 0.5 -1 6
56 12.5 -1 2
57 12.5 -1 2
58 12.5 -1 2
59 12.5 -1 2
60 12.5 -1 2
61 12.5 -1 2
62 12.5 -1 2

Improper Coeffs # umbrella

1 20 0
2 20 0
3 20 0
4 20 0
5 20 0
6 20 0
7 20 0
8 20 0
9 20 0

Atoms # full

9982 964 2 -4.2830000000000000e-002 1.5259569980543130e+001 -4.4021529649583172e+001 1.2005930415117357e+001 0 -5 -10
10279 997 13 2.0000000000000000e-002 2.7409001000033829e+001 -4.6571940448685396e+001 6.3650416048372342e+000 0 -3 -5
7465 723 13 2.0000000000000000e-002 1.9409116790147607e+001 -3.7179789541812241e+001 3.7657739914897186e+000 0 -5 -9
7466 723 14 4.0000000000000001e-002 2.0552941219072856e+001 -3.6700030077487376e+001 3.1338352223291568e+000 0 -5 -9
4106 398 13 2.0000000000000000e-002 2.4178424217543537e+001 -4.2095842499763393e+001 4.9808432869176915e+000 0 -3 -6
12184 1182 13 2.0000000000000000e-002 1.5474312781498403e+001 -4.2906241800678757e+001 5.4738279821479621e+000 1 -5 -9
7468 723 13 2.0000000000000000e-002 2.1384699175630843e+001 -3.7435938004318203e+001 2.3546319516223102e+000 0 -5 -9
115 7 13 2.0000000000000000e-002 2.3887230353104137e+001 -3.7409318566604234e+001 8.5221112815057989e+000 0 -4 -10
1270 122 13 2.0000000000000000e-002 2.2602632963326510e+001 -3.6966295893534891e+001 1.7919641848558434e+000 0 -4 -9
5115 495 13 2.0000000000000000e-002 1.8333234873757593e+001 -3.7249832581909125e+001 1.0483110211296104e+001 0 -6 -10
7379 715 14 4.0000000000000001e-002 2.0148926566374467e+001 -3.5890801309770360e+001 6.5300881132193478e+000 1 -6 -10
8767 847 13 2.0000000000000000e-002 2.3257042456819253e+001 -3.7137050817394687e+001 7.3326148552387513e+000 0 -5 -9
11309 1097 13 2.0000000000000000e-002 1.8143543545660808e+001 -3.7133488749622792e+001 1.1865998027496550e+001 0 -6 -10
11307 1097 14 4.0000000000000001e-002 1.7675955567855240e+001 -3.5756509215762613e+001 1.2256550272666322e+001 0 -6 -10
2351 224 14 4.0000000000000001e-002 1.5795038323589640e+001 -3.6390197477019171e+001 1.0867037174882375e+001 1 -6 -10
1282 122 13 2.0000000000000000e-002 2.3591246425434335e+001 -4.1075311745935899e+001 1.1290434029596932e+001 0 -4 -10
5120 496 14 4.0000000000000001e-002 1.8472851745848590e+001 -3.8714575106054887e+001 9.9867066602097943e+000 0 -6 -10
6431 622 15 -2.3669999999999999e-001 2.5665651344556697e+001 -3.5782677509363154e+001 1.0969097862316849e+001 0 -2 -2
8758 846 14 4.0000000000000001e-002 2.2649079598567130e+001 -3.8316894420258315e+001 6.5866044739468910e+000 0 -5 -9
9958 963 2 -4.2830000000000000e-002 1.5151178765357253e+001 -3.6153472877379770e+001 4.5583606470746423e+000 0 -5 -9
2360 224 13 2.0000000000000000e-002 1.4979020675776395e+001 -3.9799167774310199e+001 1.1022807633155944e+001 1 -6 -10
2657 257 13 2.0000000000000000e-002 2.0559823824804514e+001 -3.9812108020264866e+001 8.3993051525072371e+000 0 -6 -10
1276 122 13 2.0000000000000000e-002 2.3030573749315081e+001 -3.9042405126352946e+001 1.1875458003535572e+001 0 -4 -10
7471 723 14 4.0000000000000001e-002 2.0913985646083908e+001 -3.8708876143990111e+001 2.1349160954218971e+000 0 -5 -9
1285 123 13 2.0000000000000000e-002 2.5851310938818596e+001 -4.1866996286218651e+001 1.0818408634935858e+001 0 -4 -10
7402 718 13 2.0000000000000000e-002 1.8187090312400432e+001 -4.3952463107443563e+001 7.0008712054469173e+000 1 -6 -10
2340 224 14 4.0000000000000001e-002 1.5648706404252431e+001 -3.2458603353054343e+001 8.9349583184710966e+000 1 -6 -10
7477 723 14 4.0000000000000001e-002 2.1199617765500513e+001 -4.0719185087416292e+001 1.2006938011553142e+001 0 -5 -10
108 6 13 2.0000000000000000e-002 2.3660518296624492e+001 -3.9898534385224039e+001 8.2290473650000155e+000 0 -4 -10
11272 1092 14 4.0000000000000001e-002 1.8814172063316136e+001 -4.2989290376268968e+001 3.4632244844282343e+000 0 -5 -9
2348 224 13 2.0000000000000000e-002 1.5007008727063452e+001 -3.5224119432253538e+001 1.0948367620152135e+001 1 -6 -10
12170 1181 13 2.0000000000000000e-002 1.5453526605387628e+001 -3.7516500580075551e+001 8.2987858189998605e+000 1 -5 -9
4 1 13 2.0000000000000000e-002 2.3961221721463065e+001 -4.5204422292858339e+001 8.0995817548084901e+000 0 -4 -10
2655 257 14 4.0000000000000001e-002 2.1087122690689441e+001 -3.8674213437475288e+001 9.2406793021372415e+000 0 -6 -10
2650 256 13 2.0000000000000000e-002 2.0806117012198595e+001 -3.7362491518376324e+001 8.5086670341461126e+000 0 -6 -10
12169 1181 15 -2.3669999999999999e-001 1.7752264258025388e+001 -3.8366700882527240e+001 7.1800954899096565e+000 1 -5 -9
7395 717 13 2.0000000000000000e-002 1.9107436849212849e+001 -4.1865307038162037e+001 7.1512656629810651e+000 1 -6 -10
113 7 14 4.0000000000000001e-002 2.4039894435501491e+001 -3.6294287913929821e+001 9.4916872373918846e+000 0 -4 -10
2662 258 14 4.0000000000000001e-002 2.0633930172575546e+001 -4.1188825414361020e+001 9.0517094921862356e+000 0 -6 -10
6447 623 14 4.0000000000000001e-002 2.8397738051886016e+001 -4.1735279690002898e+001 1.2067747152341413e+001 0 -2 -2
377 35 13 2.0000000000000000e-002 2.8812637421595898e+001 -3.0494624967579725e+001 1.1359173378929524e+001 0 -3 -7
10272 996 13 2.0000000000000000e-002 2.7490555034453109e+001 -4.4296228876323276e+001 6.9196931099134140e+000 0 -3 -5
6300 608 14 4.0000000000000001e-002 2.7763181816198053e+001 -3.2700068415382695e+001 1.0517107980266424e+001 0 -3 -6
7450 722 13 2.0000000000000000e-002 1.9586477826115402e+001 -3.1290282620132686e+001 3.7559839103195372e+000 0 -5 -9
6432 622 13 2.0000000000000000e-002 2.7512384320380932e+001 -3.6240301514045726e+001 9.1905396707569320e+000 0 -2 -2
7696 744 14 4.0000000000000001e-002 2.2741881147127184e+001 -4.0583505613856097e+001 3.8543092956636635e+000 0 -3 -5
122 8 13 2.0000000000000000e-002 2.3635832474754427e+001 -3.4907677581826114e+001 9.0023128216077772e+000 0 -4 -10
5129 497 13 2.0000000000000000e-002 1.8564066344785044e+001 -4.2659609345337330e+001 1.1582440639779232e+001 0 -6 -10
10186 984 14 4.0000000000000001e-002 2.8299902074572742e+001 -3.4070407010083812e+001 3.3178812382889444e+000 0 -3 -5
7707 744 14 4.0000000000000001e-002 2.2329542361060295e+001 -4.5485959945277536e+001 3.6311462414492497e+000 0 -3 -5
2421 233 14 4.0000000000000001e-002 1.4880314100186947e+001 -4.2749635732329317e+001 8.8773819329676158e+000 1 -6 -10
7393 717 14 4.0000000000000001e-002 1.9204005793233645e+001 -4.0612087356271651e+001 6.3685340061054445e+000 1 -6 -10
2674 260 13 2.0000000000000000e-002 1.7833115972858028e+001 -3.0730121451016636e+001 1.7813225602846978e+000 0 -6 -9
7486 723 13 2.0000000000000000e-002 2.2569775883459052e+001 -4.3616605945909079e+001 1.0964548658109399e+001 0 -5 -10
5184 502 13 2.0000000000000000e-002 2.8561420846555226e+001 -3.2157087724622862e+001 6.5123135998930044e+000 0 -2 -2
2669 259 14 4.0000000000000001e-002 1.9936533624655958e+001 -4.3637465230453017e+001 8.8039931150445305e+000 0 -6 -10
12173 1181 13 2.0000000000000000e-002 1.7011222799060373e+001 -3.9127168338370531e+001 7.3904605709047573e+000 1 -5 -9
5202 503 13 2.0000000000000000e-002 2.8720667987805516e+001 -3.8707086386173643e+001 9.2017838234295581e+000 0 -2 -2
5099 493 14 4.0000000000000001e-002 1.8119897385237145e+001 -3.0573591431727422e+001 8.2151040407686065e+000 0 -6 -10
5190 502 13 2.0000000000000000e-002 2.8361369465783152e+001 -3.4357699884076929e+001 7.3293915585519285e+000 0 -2 -2
7474 723 13 2.0000000000000000e-002 2.1769713630779293e+001 -3.9481768595146903e+001 1.2226687003712780e+001 0 -5 -10
8779 849 14 4.0000000000000001e-002 2.1945009264064574e+001 -3.0904957255982236e+001 7.9358799451533075e+000 0 -5 -9
12190 1182 13 2.0000000000000000e-002 1.4831391193941602e+001 -4.4277971611165107e+001 3.7494886924389186e+000 1 -5 -9
7480 723 13 2.0000000000000000e-002 2.2271752657438064e+001 -4.1416242966366404e+001 1.1484608440961628e+001 0 -5 -10
9973 964 14 4.0000000000000001e-002 1.6494413332012041e+001 -4.1769446334773981e+001 3.2976626106129046e+000 0 -5 -9
11295 1095 13 2.0000000000000000e-002 1.6131572950326436e+001 -3.2628393961356096e+001 2.3462833397556602e+000 0 -6 -9
12174 1181 14 4.0000000000000001e-002 1.5761848674796568e+001 -3.8823131549759410e+001 7.9133975711060733e+000 1 -5 -9
7462 722 13 2.0000000000000000e-002 2.0945950353844800e+001 -3.5410935070405195e+001 3.1847588067151333e+000 0 -5 -9
1256 121 14 4.0000000000000001e-002 2.1871538911716389e+001 -3.1517148285102355e+001 2.8954920895668925e+000 0 -4 -9
11300 1096 14 4.0000000000000001e-002 1.6596975361718638e+001 -3.3983978813130349e+001 1.9429213521722291e+000 0 -6 -9
7459 722 13 2.0000000000000000e-002 1.8908698938186223e+001 -3.5142076938428453e+001 4.4534198318389153e+000 0 -5 -9
1267 122 14 4.0000000000000001e-002 2.3011506996251349e+001 -3.5683068923250076e+001 1.8758547278374509e+000 0 -4 -9
7461 722 15 -2.3669999999999999e-001 1.8728578556020306e+001 -3.6527888554429971e+001 4.3446596798327679e+000 0 -5 -9
5113 495 14 4.0000000000000001e-002 1.8344745373256547e+001 -3.5996482184707276e+001 9.4720004579953319e+000 0 -6 -10
2648 256 14 4.0000000000000001e-002 2.1042090797939444e+001 -3.6236912147791905e+001 9.4221978613400008e+000 0 -6 -10
7460 722 14 4.0000000000000001e-002 2.0059988689528552e+001 -3.4612328869409097e+001 3.8573967480996649e+000 0 -5 -9
11293 1095 14 4.0000000000000001e-002 1.5734463742766376e+001 -3.1872190020126286e+001 1.1966481895183101e+001 0 -6 -10
1273 122 14 4.0000000000000001e-002 2.3525508713524786e+001 -3.7754953428930165e+001 1.1975745050365523e+001 0 -4 -10
1264 122 13 2.0000000000000000e-002 2.2104490244495818e+001 -3.4938175594125291e+001 2.5751442917500480e+000 0 -4 -9
11302 1096 11 -4.1939999999999998e-003 1.7139113572088053e+001 -3.5186239854070209e+001 2.7261164371403233e+000 0 -6 -9
11316 1098 13 2.0000000000000000e-002 1.8414916969396295e+001 -3.9710956248905518e+001 1.5043225521587338e+000 0 -6 -9
10091 980 14 4.0000000000000001e-002 1.5425141073266243e+001 -4.4943231968333343e+001 1.0935000213311390e+001 0 -5 -10
10179 984 14 4.0000000000000001e-002 2.7364440036214567e+001 -3.2269898517545009e+001 2.7482679365061160e+000 0 -3 -5
1262 122 14 4.0000000000000001e-002 2.2465309056397484e+001 -3.3613572866897492e+001 2.5593443531824351e+000 0 -4 -9
5108 494 13 2.0000000000000000e-002 1.8304762639283734e+001 -3.4432563837747139e+001 9.7829735130111288e+000 0 -6 -10
4076 394 14 4.0000000000000001e-002 2.6546452660889127e+001 -3.0944072301566926e+001 4.9892186232909772e+000 0 -3 -6
4062 392 14 4.0000000000000001e-002 2.4562848305093883e+001 -4.5784285441370756e+001 5.5549002909657457e+000 0 -2 -6
5136 498 11 -4.1939999999999998e-003 1.8487277140667679e+001 -4.5581525952013834e+001 1.1361805544983390e+001 0 -6 -10
2629 253 13 2.0000000000000000e-002 1.8598099184282034e+001 -3.3900381637403981e+001 1.1028835393735065e+001 0 -6 -10
2634 254 14 4.0000000000000001e-002 1.9639498879327274e+001 -3.4437297610688802e+001 1.1980592025546171e+001 0 -6 -10
6302 608 13 2.0000000000000000e-002 2.8870118924744496e+001 -3.3439412018919050e+001 1.1240023523077966e+001 0 -3 -6
7492 724 13 2.0000000000000000e-002 2.2923075341834085e+001 -4.5837343649794626e+001 1.0476494120797366e+001 0 -5 -10
7400 718 14 4.0000000000000001e-002 1.8165560158152537e+001 -4.2637041853518966e+001 6.3480459752772536e+000 1 -6 -10
2468 240 13 2.0000000000000000e-002 1.6569321502601284e+001 -4.0826691872459932e+001 9.3786958480400671e+000 1 -6 -10
12166 1181 13 2.0000000000000000e-002 1.7541581434145268e+001 -3.7032277614683167e+001 7.1489519552309337e+000 1 -5 -9
7484 723 14 4.0000000000000001e-002 2.1690505051607321e+001 -4.2652892958530678e+001 1.1276684069175845e+001 0 -5 -10
120 8 14 4.0000000000000001e-002 2.3506218670740733e+001 -3.3876408345283266e+001 1.0121376756751328e+001 0 -4 -10
7358 712 14 4.0000000000000001e-002 1.5680623994645625e+001 -4.6268432496910769e+001 5.8184210280745958e+000 1 -5 -10
2336 223 13 2.0000000000000000e-002 1.5070783376480978e+001 -3.1392277900751417e+001 8.3232677968792146e+000 1 -6 -10
9964 964 2 -4.2830000000000000e-002 1.5884389733152711e+001 -3.8442811377834140e+001 4.6378524947742434e+000 0 -5 -9
6456 623 13 2.0000000000000000e-002 2.8534632749745942e+001 -4.5373690989715776e+001 1.2051909638577184e+001 0 -2 -2
6190 601 13 2.0000000000000000e-002 2.6819667832003727e+001 -4.4007104825845573e+001 3.6974039196944459e+000 0 -3 -5
4113 399 13 2.0000000000000000e-002 2.4046776576845698e+001 -4.4518858663275402e+001 4.9557050489539360e+000 0 -3 -6
2 1 14 4.0000000000000001e-002 2.4159868872590437e+001 -4.3819447758066239e+001 8.3211913781688498e+000 0 -4 -10
2354 224 13 2.0000000000000000e-002 1.5053564516728413e+001 -3.7476045935829589e+001 1.1365495013768847e+001 1 -6 -10
101 5 13 2.0000000000000000e-002 2.3511806762732643e+001 -4.2455830835047038e+001 7.9402230203254360e+000 0 -4 -10
7672 743 14 4.0000000000000001e-002 2.3734988647786150e+001 -3.1024457682267162e+001 4.4511566571844714e+000 0 -3 -5
5127 497 14 4.0000000000000001e-002 1.8537210656479960e+001 -4.1459964587878311e+001 1.0581642225744318e+001 0 -6 -10
6436 623 14 4.0000000000000001e-002 2.7208047024373130e+001 -3.7184457902138412e+001 1.0167608163161759e+001 0 -2 -2
10178 984 13 2.0000000000000000e-002 2.8459537158932523e+001 -3.1665213879784222e+001 3.3014145604579994e+000 0 -3 -5
6444 623 13 2.0000000000000000e-002 2.8349823136799216e+001 -4.0722705870981194e+001 1.1095664562554656e+001 0 -2 -2
6293 607 14 4.0000000000000001e-002 2.8806687202924238e+001 -3.4944998959022222e+001 1.1092343659948199e+001 0 -3 -6
5106 494 14 4.0000000000000001e-002 1.8137757177352935e+001 -3.3258176686425792e+001 8.7490722279978890e+000 0 -6 -10
1258 121 13 2.0000000000000000e-002 2.1537922911238720e+001 -3.2815830297559245e+001 3.1641677157898536e+000 0 -4 -9
1252 121 13 2.0000000000000000e-002 2.0766183296885881e+001 -3.0804857750382112e+001 3.2326739538627631e+000 0 -4 -9
4104 398 14 4.0000000000000001e-002 2.5058819448763309e+001 -4.1060405593571872e+001 5.6049174185836677e+000 0 -3 -6
11274 1092 13 2.0000000000000000e-002 1.8503269569707353e+001 -4.4453855590511836e+001 3.6022463034905203e+000 0 -5 -9
7456 722 13 2.0000000000000000e-002 2.0373877677724444e+001 -3.3289314295169838e+001 3.7566100900106569e+000 0 -5 -9
11314 1098 14 4.0000000000000001e-002 1.8149216157459158e+001 -3.8271925536763291e+001 2.0944805406063227e+000 0 -6 -9
12158 1181 13 2.0000000000000000e-002 1.5737532943691651e+001 -3.3476036094354576e+001 5.8282580824913222e+000 1 -5 -9
7386 716 14 4.0000000000000001e-002 1.9937132213884521e+001 -3.8331877874362966e+001 6.2914055769569988e+000 1 -6 -10
7698 744 13 2.0000000000000000e-002 2.3088903852106444e+001 -4.1917362325042944e+001 4.1355979602347235e+000 0 -3 -5
8654 841 14 4.0000000000000001e-002 2.1719158639070777e+001 -4.3367801807945995e+001 6.4565529337727785e+000 0 -5 -9
2627 253 14 4.0000000000000001e-002 1.8531964107459000e+001 -3.2511018188102348e+001 1.1535585201144738e+001 0 -6 -10
6441 623 14 4.0000000000000001e-002 2.7714308513677178e+001 -3.9463001386264274e+001 1.1194235106607822e+001 0 -2 -2
7453 722 14 4.0000000000000001e-002 1.9282399797548063e+001 -3.2568088479887798e+001 4.1537904211274688e+000 0 -5 -9
7706 744 13 2.0000000000000000e-002 2.1266532206324122e+001 -4.5377002863107116e+001 2.7207490009070368e+000 0 -3 -5
2643 255 13 2.0000000000000000e-002 2.0662940373119667e+001 -3.4929349554317504e+001 8.7854445590690737e+000 0 -6 -10
3769 363 14 4.0000000000000001e-002 2.5535834585919670e+001 -4.2107608075118101e+001 2.7446785812615828e+000 0 -3 -5
7381 715 13 2.0000000000000000e-002 2.0341114299531096e+001 -3.7194738136581542e+001 7.2062537433744787e+000 1 -6 -10
7674 743 13 2.0000000000000000e-002 2.4373991300705551e+001 -3.2226857960769792e+001 4.7758867460765853e+000 0 -3 -5
7710 744 13 2.0000000000000000e-002 2.2717886528817690e+001 -4.6757192395053877e+001 4.0952760086002371e+000 0 -3 -5
7388 716 13 2.0000000000000000e-002 1.9985442104216826e+001 -3.9603120613836509e+001 7.1143232812674881e+000 1 -6 -10
7409 719 13 2.0000000000000000e-002 1.6889716435757897e+001 -4.5975799332982263e+001 6.6043284809290457e+000 1 -6 -10
7367 713 11 -4.1939999999999998e-003 1.9773905206902395e+001 -3.2009612210935529e+001 7.0343166461786950e+000 1 -6 -10
8781 849 13 2.0000000000000000e-002 2.2537750389074631e+001 -3.2222136827374179e+001 8.3906738093797451e+000 0 -5 -9
6454 623 14 4.0000000000000001e-002 2.8541321103219818e+001 -4.4045302818138431e+001 1.7506386360302526e+000 0 -2 -1
7407 719 14 4.0000000000000001e-002 1.7088031431147062e+001 -4.4560506472958281e+001 6.2502252103300924e+000 -1 -6 -10
106 6 14 4.0000000000000001e-002 2.4298220552098435e+001 -3.8766191047824449e+001 9.0337608427305547e+000 0 -4 -10
3776 363 14 4.0000000000000001e-002 2.4897225418969715e+001 -4.4261652615965232e+001 2.3055824162709775e+000 0 -3 -5
2620 252 14 4.0000000000000001e-002 1.8730421489230540e+001 -4.6044487592588467e+001 8.3920036057154128e+000 0 -5 -10
8760 846 13 2.0000000000000000e-002 2.2855858460659906e+001 -3.9716258183259725e+001 7.1496910135163416e+000 0 -5 -9
12156 1181 14 4.0000000000000001e-002 1.6526257435726659e+001 -3.3067204717809204e+001 4.7592830730565847e+000 1 -5 -9
9976 964 2 -4.2830000000000000e-002 1.5519999583396901e+001 -4.1872253559864454e+001 2.3112093493643178e+000 0 -5 -9
1287 123 15 -2.3669999999999999e-001 2.6625195216786061e+001 -4.2993092154840674e+001 1.0489222679412594e+001 0 -4 -10
7692 743 13 2.0000000000000000e-002 2.3428874358371768e+001 -3.9465177255888392e+001 4.3632458091838613e+000 0 -3 -5
4099 397 13 2.0000000000000000e-002 2.4566698427519903e+001 -3.9711134914208408e+001 5.1723686208217083e+000 0 -3 -6
99 5 14 4.0000000000000001e-002 2.4088714182650506e+001 -4.1292351446831553e+001 8.6897342896603309e+000 0 -4 -10
10263 995 14 4.0000000000000001e-002 2.6360297193408961e+001 -4.1024830632322711e+001 7.9348372895746673e+000 0 -3 -5
1280 122 14 4.0000000000000001e-002 2.4080759362466839e+001 -3.9805688624714506e+001 1.1423021075182209e+001 0 -4 -10
12161 1181 14 4.0000000000000001e-002 1.6390369305627491e+001 -3.4591122852881867e+001 6.3911867307368100e+000 1 -5 -9
11323 1099 13 2.0000000000000000e-002 1.8705782229477787e+001 -4.2261316581506144e+001 2.1149338040036998e+000 0 -6 -9
6435 623 13 2.0000000000000000e-002 2.6215992945762576e+001 -3.6901161131303276e+001 1.1073645003238822e+001 0 -2 -2
6438 623 13 2.0000000000000000e-002 2.7845475477458770e+001 -3.8441103775017410e+001 1.0214907064115712e+001 0 -2 -2
7365 713 14 4.0000000000000001e-002 2.0223215513059738e+001 -3.0796563598218242e+001 6.1785926941448563e+000 1 -6 -10
12164 1181 13 2.0000000000000000e-002 1.5739086443656001e+001 -3.5390637793959833e+001 7.2708332177628519e+000 1 -5 -9
7701 744 14 4.0000000000000001e-002 2.2526669096764014e+001 -4.3098221120202432e+001 3.6324431826141650e+000 0 -3 -5
1286 123 14 4.0000000000000001e-002 2.4489539809025768e+001 -4.2077602583118832e+001 1.0997041242799774e+001 0 -4 -10
4078 394 13 2.0000000000000000e-002 2.5775298791107492e+001 -3.2240385654475567e+001 5.0418068659394839e+000 0 -3 -6
10265 995 13 2.0000000000000000e-002 2.7368546107106617e+001 -4.1950183941419567e+001 7.4459948303089645e+000 0 -3 -5
10256 994 13 4.0000000000000001e-002 2.6731801766929696e+001 -3.9062494166919834e+001 6.3030856866872904e+000 0 -3 -5
10258 994 11 -4.1939999999999998e-003 2.7234667322814030e+001 -4.0092113981116128e+001 7.2576891827409593e+000 0 -3 -5
7703 744 15 -2.3669999999999999e-001 2.0875388138327327e+001 -4.4262485964648150e+001 2.3237875680051006e+000 0 -3 -5
4097 397 13 4.0000000000000001e-002 2.5535250892311417e+001 -3.8723707931620034e+001 5.6346535367750468e+000 0 -3 -6
7690 743 14 4.0000000000000001e-002 2.3177572158098673e+001 -3.8105587655286115e+001 4.1190056883230195e+000 0 -3 -5
8774 848 13 2.0000000000000000e-002 2.3193595245769757e+001 -3.4626997622013050e+001 7.7050726243511951e+000 0 -5 -9
7677 743 14 4.0000000000000001e-002 2.3825765043837428e+001 -3.3497062917902404e+001 4.6323349850973505e+000 0 -3 -5
8656 841 2 -4.2830000000000000e-002 2.0688681033040361e+001 -4.3338281417991240e+001 5.5471180621895391e+000 0 -5 -9
1294 123 13 2.0000000000000000e-002 2.4326063149087652e+001 -4.5563065402970338e+001 1.0420314612881091e+001 0 -4 -10
6430 622 14 4.0000000000000001e-002 2.6894451705853214e+001 -3.4985806400496983e+001 9.0850472426493685e+000 0 -2 -2
10270 996 14 4.0000000000000001e-002 2.6640173542256726e+001 -4.3227654070387196e+001 7.5975639349250281e+000 0 -3 -5
7683 743 14 4.0000000000000001e-002 2.3531593610894390e+001 -3.5803831001262488e+001 4.4226428569855596e+000 0 -3 -5
8765 847 14 4.0000000000000001e-002 2.2912208949198412e+001 -3.5769920002464843e+001 6.7853542461401259e+000 0 -5 -9
7686 743 13 2.0000000000000000e-002 2.4064931723166328e+001 -3.7093074079602168e+001 4.5294265348918588e+000 0 -3 -5
4092 396 13 2.0000000000000000e-002 2.5303764555676224e+001 -3.7331540055637760e+001 5.1206680940612088e+000 0 -3 -6
8772 848 14 4.0000000000000001e-002 2.2733929629003971e+001 -3.3214525744855912e+001 7.2361656954130220e+000 0 -5 -9
9962 964 14 4.0000000000000001e-002 1.5641052316299755e+001 -3.7279384549144112e+001 3.9270667128225853e+000 0 -5 -9
7 1 14 4.0000000000000001e-002 2.2779950313605401e+001 -4.5573808043229612e+001 7.4937536943338898e+000 0 -4 -10
8753 845 13 2.0000000000000000e-002 2.2484384596852831e+001 -4.2193107419591158e+001 7.0288127757423089e+000 0 -5 -9
127 9 14 4.0000000000000001e-002 2.2222165906378741e+001 -3.1952842054348647e+001 1.0935575262383718e+001 0 -4 -10
4085 395 13 2.0000000000000000e-002 2.5839630686733436e+001 -3.4924601217508311e+001 5.0719797711979648e+000 0 -3 -6
4090 396 13 4.0000000000000001e-002 2.6457918297028979e+001 -3.6380912534211255e+001 5.3208870445287131e+000 0 -3 -6
129 9 13 2.0000000000000000e-002 2.2849776014090789e+001 -3.2572731976332854e+001 9.7121505865521307e+000 0 -4 -10
7680 743 13 2.0000000000000000e-002 2.4482778416499823e+001 -3.4743809310622240e+001 4.7400307447942964e+000 0 -3 -5
7704 744 13 2.0000000000000000e-002 2.2965175708697814e+001 -4.4330522166617122e+001 4.0933870445219656e+000 0 -3 -5
1291 123 14 4.0000000000000001e-002 2.4879788179163850e+001 -4.4302389513753170e+001 1.0632522003294852e+001 0 -4 -10
4083 395 14 4.0000000000000001e-002 2.6596269124340228e+001 -3.3531940990463006e+001 5.3059861350191966e+000 0 -3 -6
2636 254 11 -4.1939999999999998e-003 2.0855227259704908e+001 -3.4748911543811246e+001 1.1133799893525547e+001 0 -6 -10
1300 123 13 2.0000000000000000e-002 2.4825051380356374e+001 -4.6207254751761326e+001 8.5796060676898769e+000 0 -4 -10
5122 496 13 2.0000000000000000e-002 1.8489222982112484e+001 -3.9966974011967508e+001 1.0973249083080210e+001 0 -6 -10
349 31 13 2.0000000000000000e-002 2.8661192243592112e+001 -4.1749387994165538e+001 6.8819976486272365e+000 0 -2 -6
7374 714 13 2.0000000000000000e-002 2.0317368918745036e+001 -3.4712950103313375e+001 7.4638700794584851e+000 1 -6 -10
4111 399 14 4.0000000000000001e-002 2.4817977372863567e+001 -4.3356248743475540e+001 5.5045068927231178e+000 0 -3 -6
5101 493 13 2.0000000000000000e-002 1.8168227908658491e+001 -3.1750179998348560e+001 9.2343763785162061e+000 0 -6 -10
7372 714 14 4.0000000000000001e-002 1.9955165563380337e+001 -3.3466171197757710e+001 6.5568186097476486e+000 1 -6 -10
6426 622 13 2.0000000000000000e-002 2.7334893583788944e+001 -3.4034962794265567e+001 8.1584420932072863e+000 0 -2 -2
2641 255 14 4.0000000000000001e-002 2.0814249018930777e+001 -3.3907327022768442e+001 9.8998876608274706e+000 0 -6 -10
11321 1099 14 4.0000000000000001e-002 1.8649206299362081e+001 -4.0776119731928851e+001 2.5377962909603919e+000 0 -6 -9
12253 1185 14 4.0000000000000001e-002 1.5524064527509491e+001 -3.0802055324871478e+001 4.0814810850252146e+000 1 -5 -9
3766 363 13 2.0000000000000000e-002 2.6591821176895134e+001 -4.1250756523785356e+001 3.1009146194433685e+000 0 -3 -5
6307 609 14 4.0000000000000001e-002 2.6603379659928684e+001 -3.0829183040335096e+001 9.9340126142276315e+000 0 -3 -6
8751 845 14 4.0000000000000001e-002 2.2095905368382866e+001 -4.0847175300663778e+001 6.4616846884368648e+000 0 -5 -9
6184 601 13 2.0000000000000000e-002 2.7727682423808918e+001 -4.1780297477061396e+001 3.6953707382779153e+000 0 -3 -5
10182 984 13 2.0000000000000000e-002 2.7171655125022099e+001 -3.3579502561414337e+001 2.6965395858032415e+000 0 -3 -5
5196 502 13 2.0000000000000000e-002 2.8460155756141528e+001 -3.6506178949938658e+001 8.2741863564328195e+000 0 -2 -2
10 1 13 2.0000000000000000e-002 2.2512318087606339e+001 -4.6928811467347330e+001 7.4881393661665188e+000 0 -4 -10
10277 997 14 4.0000000000000001e-002 2.6624654753193603e+001 -4.5514964028272459e+001 7.0100540027939129e+000 0 -3 -5
2334 223 14 4.0000000000000001e-002 1.5902867421251893e+001 -3.1067578954577545e+001 7.3135378310304313e+000 3 -6 -10
2664 258 13 2.0000000000000000e-002 1.9861696012953416e+001 -4.2239148433458631e+001 8.2904917695520748e+000 0 -6 -10
11265 1091 14 4.0000000000000001e-002 1.7251037164527446e+001 -4.5047495189959541e+001 2.9472370253300313e+000 0 -5 -9
3763 363 14 4.0000000000000001e-002 2.6373718355576280e+001 -3.9860874711906462e+001 2.8232716908529665e+000 0 -3 -5
1297 123 14 4.0000000000000001e-002 2.5353970121577735e+001 -4.6249412709718285e+001 9.8405959368394047e+000 0 -4 -10
12255 1185 13 2.0000000000000000e-002 1.6062946406145173e+001 -3.2130991269371918e+001 3.6929563839226809e+000 1 -5 -9
10188 984 13 2.0000000000000000e-002 2.8297552804291602e+001 -3.5425153978171394e+001 3.4475571845287769e+000 0 -3 -5
3760 363 13 2.0000000000000000e-002 2.7386562721258326e+001 -3.8935511758005930e+001 3.0412471014912565e+000 0 -3 -5
12167 1181 14 4.0000000000000001e-002 1.6303541255961814e+001 -3.6578289549911574e+001 7.6854422491703742e+000 1 -5 -9
3742 362 13 2.0000000000000000e-002 2.5186184025336214e+001 -3.2297130676179137e+001 1.6281615762618347e+000 0 -3 -5
3772 363 13 2.0000000000000000e-002 2.5820558859026271e+001 -4.3465345013614687e+001 2.9387731990584061e+000 0 -3 -5
3745 362 14 4.0000000000000001e-002 2.5066832908844990e+001 -3.3675658969492403e+001 1.6321514882184891e+000 0 -3 -5
2676 260 13 2.0000000000000000e-002 1.8201424062966655e+001 -3.1369663171605612e+001 1.0547459509404126e+001 0 -6 -10
7700 744 13 2.0000000000000000e-002 2.1414115587797802e+001 -4.3105366398878445e+001 2.8041215923949978e+000 0 -3 -5
6193 601 14 4.0000000000000001e-002 2.6958284110257537e+001 -4.5410465818709987e+001 3.9288227071159092e+000 0 -3 -5
10176 984 13 2.0000000000000000e-002 2.6300112847177502e+001 -3.1605531869311477e+001 2.1469210247432677e+000 0 -3 -5
3758 363 14 4.0000000000000001e-002 2.6935224676015398e+001 -3.7641767954306069e+001 2.7985795390523411e+000 0 -3 -5
1288 123 13 2.0000000000000000e-002 2.3969514852150812e+001 -4.3327749524634349e+001 1.0880640230361799e+001 0 -4 -10
7495 724 14 4.0000000000000001e-002 2.2018904683251051e+001 -4.6913056011566823e+001 1.0308787509118012e+001 0 -5 -10
2345 224 14 4.0000000000000001e-002 1.5553299278275931e+001 -3.4250613894991162e+001 1.0168206233614892e+001 1 -6 -10
3778 363 13 2.0000000000000000e-002 2.5010743258680140e+001 -4.5628315032134147e+001 2.4671163199398660e+000 0 -3 -5
6309 609 13 2.0000000000000000e-002 2.7835440703013042e+001 -3.1212088027918856e+001 1.0680544310327344e+001 0 -3 -6
3748 362 13 2.0000000000000000e-002 2.6118057088227804e+001 -3.4310135310016989e+001 2.2246007776402399e+000 0 -3 -5
6423 622 14 4.0000000000000001e-002 2.6784571004134907e+001 -3.2744087417620612e+001 8.1721405219515066e+000 0 -2 -2
10251 993 13 2.0000000000000000e-002 2.8014842784667728e+001 -3.8408602378045245e+001 5.9603475631775638e+000 0 -3 -5
8659 841 14 4.0000000000000001e-002 2.0288152228751791e+001 -4.4650070348998248e+001 5.3631696528034096e+000 0 -5 -9