LAMMPS data file via write_data, version 29 Oct 2020, timestep = 158

4264 atoms
18 atom types
5245 bonds
18 bond types
8304 angles
39 angle types
12773 dihedrals
62 dihedral types
2000 impropers
9 improper types

2.86896396968838 83.13103803029567 xlo xhi
-47.07931450222521 19.479315502225212 ylo yhi
-0.7846666653786691 14.584666665378718 zlo zhi

Masses

1 14.0067
2 12.011
3 14.0067
4 15.9994
5 1.008
6 1.008
7 15.9994
8 12.011
9 12.011
10 1.008
11 12.011
12 1.008
13 12.011
14 12.011
15 14.0067
16 15.9994
17 14.0067
18 12.011


Bond Coeffs # harmonic

1 1365.78 1.155
2 398.26 1.093
3 1024.04 1.2
4 500.95 1.374
5 362.01 1.1
6 362.01 1.1
7 509.51 1.359
8 591.76 0.965
9 517.41 1.528
10 497.83 1.459
11 362.01 1.1
12 705.27 1.398
13 362.01 1.1
14 705.27 1.398
15 634.85 1.335
16 398.26 1.093
17 634.85 1.335
18 867.4 1.238

Angle Coeffs # harmonic

1 50 180
2 50 104.51
3 50 109.471
4 50 109.471
5 50 109.471
6 50 120
7 50 120
8 50 120
9 50 120
10 50 120
11 50 120
12 50 120
13 50 120
14 50 109.471
15 50 109.471
16 50 120
17 50 109.471
18 50 109.471
19 50 109.471
20 50 120
21 50 109.471
22 50 109.471
23 50 120
24 50 109.471
25 50 109.471
26 50 109.471
27 50 120
28 50 106.7
29 50 109.471
30 50 109.471
31 50 109.471
32 50 120
33 50 109.471
34 50 109.471
35 50 106.7
36 50 120
37 50 120
38 50 120
39 50 120

Dihedral Coeffs # harmonic

1 0 1 1
2 0 1 1
3 1 1 3
4 1 1 3
5 1 1 3
6 0.5 -1 6
7 12.5 -1 2
8 12.5 -1 2
9 0.5 -1 6
10 0.5 -1 6
11 0.5 -1 6
12 12.5 -1 2
13 12.5 -1 2
14 1 1 3
15 1 1 3
16 1 1 3
17 1 1 3
18 12.5 -1 2
19 12.5 -1 2
20 12.5 -1 2
21 0.5 -1 6
22 0.5 -1 6
23 12.5 -1 2
24 12.5 -1 2
25 12.5 -1 2
26 1 1 3
27 1 1 3
28 1 1 3
29 12.5 -1 2
30 12.5 -1 2
31 0.5 -1 6
32 0.5 -1 6
33 12.5 -1 2
34 1 1 3
35 0.5 -1 6
36 0.5 -1 6
37 1 1 3
38 1 1 3
39 1 1 3
40 1 1 3
41 1 1 3
42 1 1 3
43 1 1 3
44 0.5 -1 6
45 0.5 -1 6
46 0.5 -1 6
47 1 1 3
48 0.5 -1 6
49 0.5 -1 6
50 1 1 3
51 1 1 3
52 1 -1 2
53 0.5 -1 6
54 0.5 -1 6
55 0.5 -1 6
56 12.5 -1 2
57 12.5 -1 2
58 12.5 -1 2
59 12.5 -1 2
60 12.5 -1 2
61 12.5 -1 2
62 12.5 -1 2

Improper Coeffs # umbrella

1 20 0
2 20 0
3 20 0
4 20 0
5 20 0
6 20 0
7 20 0
8 20 0
9 20 0

Atoms # full

1273 122 14 0.0849 12.599040230983425 -41.00928283071806 14.436812743388327 0 -4 -10
2336 223 13 0.02 6.952211294125372 -31.884157302962354 6.67133188018047 1 -6 -10
7465 723 13 0.02 9.31018448629695 -40.68671835244589 2.7514265669598994 0 -5 -9
7466 723 14 0.04 10.431601484390606 -40.27420834328452 2.0104554857592207 0 -5 -9
7471 723 14 0.04 10.44276528136786 -42.252712671812176 0.545529248695431 0 -5 -9
2655 257 14 0.0849 9.02196429118148 -40.629999757429914 11.299700738313367 0 -6 -10
7468 723 13 0.02 10.976604014288144 -41.016584018988596 0.9465263596168716 0 -5 -9
115 7 13 0.02 13.438330582519214 -39.358575024953645 5.709148919178674 0 -4 -10
1270 122 13 0.02 12.056723673229797 -40.466112468608884 0.22691331088700853 0 -4 -9
5115 495 13 0.02 6.054875465717604 -39.05233246577405 14.509522052888876 0 -6 -10
7414 720 13 0.02 9.4126930841635 -30.928852587895964 9.026732984191774 -1 -6 -10
8767 847 13 0.02 14.02347625648916 -39.26057116106554 4.441124452642237 0 -5 -9
11309 1097 13 0.02 6.669222258673119 -39.28073143487481 0.3885608191788391 0 -6 -9
11307 1097 14 0.0849 6.894566294065944 -38.19615627728734 1.4951198340124758 0 -6 -9
4844 466 14 0.0849 4.431755854424318 -31.539906975107552 6.4254795251321175 1 -6 -10
2345 224 14 0.04 5.633553674026571 -35.11264026548951 7.276243012609274 1 -6 -10
5120 496 14 0.0849 5.571760769015924 -40.347057347768875 13.70406415915105 0 -6 -10
5101 493 13 0.02 6.966202767428743 -33.476859036519045 14.438851825471723 0 -6 -10
8758 846 14 0.0849 13.832048413262578 -40.3952100176438 3.399939881736058 0 -5 -9
2342 224 13 0.02 5.565931516821021 -33.7594511875794 7.026279273286057 1 -6 -10
1276 122 13 0.02 11.95307842890283 -42.17758466992263 14.055532294740246 0 -4 -10
1280 122 14 0.04 12.423066764726844 -42.54307686366189 12.803150518512492 0 -4 -10
106 6 14 0.0849 12.539003275956043 -40.44184841146204 6.243041048464607 0 -4 -10
7474 723 13 0.02 10.948177159783073 -42.859928913264596 -0.6123636552302967 0 -5 -9
11314 1098 14 0.0849 6.9462238688769045 -40.72735683285087 0.8959352315300418 0 -6 -9
7477 723 14 0.0849 10.427976778354738 -44.073839228539015 14.27416271350424 0 -5 -10
1282 122 13 0.02 11.874456040651907 -43.70358556405 12.276794011245997 0 -4 -10
8760 846 13 0.02 12.919269025750177 -41.54307999711565 3.901369139843952 0 -5 -9
108 6 13 0.02 12.355440096765129 -41.48942448359348 5.178781568495719 0 -4 -10
5122 496 13 0.02 5.79065282001521 -41.837938877905145 14.228201736882992 0 -6 -10
11316 1098 13 0.02 6.496426189577313 -41.95521508508491 0.05251798769963733 0 -6 -9
8751 845 14 0.0849 12.641880854027239 -42.75607140953853 2.978326991181186 0 -5 -9
2468 240 13 0.02 4.883321575284262 -41.68498021039486 6.454527610285428 1 -6 -10
7484 723 14 0.04 10.475178984448371 -45.68142655977817 12.54685153999831 0 -5 -10
2650 256 13 0.02 8.91432834328094 -39.12852831534785 10.968459427883328 0 -6 -10
2657 257 13 0.02 8.028435069550852 -41.48669484344403 10.501330144918096 0 -6 -10
7438 721 13 0.02 8.529649757523954 -30.895527736771786 2.191866451543795 0 -5 -9
113 7 14 0.0849 13.549203420978543 -38.40287612130554 6.868115011348504 0 -4 -10
2664 258 13 0.02 7.029065115043413 -43.82037539493582 10.001771393252378 0 -6 -10
101 5 13 0.02 11.19413166439936 -43.62865947775048 4.883710885901181 0 -4 -10
8753 845 13 0.02 11.744117952142805 -43.850810671239834 3.6079142724487543 0 -5 -9
4846 466 13 0.02 4.382441677482844 -33.03668768260136 6.821873288004299 1 -6 -10
7486 723 13 0.02 10.929699988268986 -46.11798612430648 11.293592483991786 0 -5 -10
2351 224 14 0.0849 4.727517201400662 -37.18067353644337 7.45743847698995 1 -6 -10
11321 1099 14 0.0849 6.8824270702653845 -43.35562966515605 0.5806701615714768 0 -6 -9
7388 716 13 0.02 7.1173315453280175 -40.89368155376894 9.617765786866423 1 -6 -10
4839 465 13 0.02 3.1883968226971016 -35.244731341625425 7.256674869358427 1 -6 -10
1290 123 13 0.02 13.067958428960235 -44.871930068203575 8.53862233734834 0 -4 -10
2334 223 14 0.04 8.261598488797299 -31.478949638373788 6.743804413556407 3 -6 -10
2662 258 14 0.0849 8.100627813336274 -43.00951094406903 10.760687745329493 0 -6 -10
7480 723 13 0.02 10.950148425545503 -44.452845270401745 13.024053000572273 0 -5 -10
99 5 14 0.0849 11.42236993456688 -42.4752372780534 5.82306407469461 0 -4 -10
1285 123 13 -0.3605 13.129117920986413 -43.37232680251586 10.184390349062278 0 -4 -10
1286 123 14 0.04 12.26334432422578 -44.10982646695172 11.002027710372964 0 -4 -10
1287 123 15 -0.2367 13.447554713236114 -43.889907947113535 8.919535367511687 0 -4 -10
5127 497 14 0.0849 5.307574650931246 -43.20286348101121 13.54707637459675 0 -6 -10
7374 714 13 0.02 8.976017699790402 -36.15269319450345 10.50231917188993 1 -6 -10
7395 717 13 0.02 6.060825962257684 -43.18048059813731 9.219291381757015 1 -6 -10
1288 123 13 0.02 11.779802189841204 -45.32311896004717 10.519349736409817 0 -4 -10
12156 1181 14 0.04 3.616104013497717 -35.593522207518426 2.873835031154283 1 -5 -9
5099 493 14 0.0849 6.343386775299107 -32.103006190995174 13.962895900625323 0 -6 -10
7379 715 14 0.0849 8.08332392706164 -37.06711336737534 9.638425216278836 1 -6 -10
5129 497 13 0.02 5.633782519431396 -44.68616864738907 14.064462193277354 0 -6 -10
11293 1095 14 0.0849 6.232922296998428 -32.92354822536624 1.7283532670041775 0 -6 -9
2669 259 14 0.0849 7.085341336508198 -45.36006818325221 10.137445467374974 0 -6 -10
11323 1099 13 0.02 6.481199962562363 -44.676741310894776 -0.14379671479218448 0 -6 -9
2 1 14 0.04 10.408416422125685 -44.55640346785663 5.774665998478333 0 -4 -10
7462 722 13 0.02 10.985189198554613 -39.02020875959818 2.3059463344318516 0 -5 -9
1256 121 14 0.04 12.491469945987172 -35.20136856553788 2.9035026280181397 0 -4 -9
11300 1096 14 0.0849 6.555971027309256 -35.50363136886591 1.8199072303243178 0 -6 -9
7459 722 13 -0.3605 9.238534668035536 -38.76001735897628 3.902252272232641 0 -5 -9
1267 122 14 0.04 12.656913626421897 -39.261657991386464 0.5728336347702488 0 -4 -9
7461 722 15 -0.2367 8.826385113894375 -40.05569538051868 3.5425183769262634 0 -5 -9
5113 495 14 0.0849 5.915712796778525 -37.564262737213916 13.93061313880612 0 -6 -10
2648 256 14 0.0849 9.764359187423395 -38.236861334078526 11.864830233803424 0 -6 -10
7460 722 14 0.04 10.36691901395191 -38.22509242392126 3.2744278589479356 0 -5 -9
4978 482 13 0.02 2.8726767266395745 -6.180256489322821 5.029205346060441 0 -6 -10
1252 121 13 0.02 11.563005499369174 -34.335031000319965 3.4562890848199412 0 -4 -9
11295 1095 13 0.02 5.6138954539237345 -34.282545451393254 2.089134364951765 0 -6 -9
1264 122 13 0.02 12.112437164114374 -38.542292302941135 1.6243268951875578 0 -4 -9
11302 1096 11 -0.004194 5.983599327381628 -36.92748396497137 1.5530166154048006 0 -6 -9
2643 255 13 0.02 9.668452475086243 -36.720069318820656 11.602914506574912 0 -6 -10
12166 1181 13 -0.3605 2.930630146311483 -39.97666036440105 4.0401904838711475 1 -5 -9
1294 123 13 0.02 11.836839539020197 -46.97697782637476 8.734379047156414 0 -4 -10
1262 122 14 0.04 12.686528840082305 -37.30743657362733 1.9021582474150864 0 -4 -9
5108 494 13 0.02 6.797759851242993 -36.24779680245571 14.203750078328378 0 -6 -10
2469 240 14 0.04 3.5337364173938317 -41.44568562985762 6.749134220148258 1 -6 -10
4853 467 13 0.02 5.892937794636565 -31.03501435689795 6.356299057712019 1 -6 -10
2636 254 11 -0.004194 10.551135092814274 -36.86394422286859 14.016805338119129 0 -6 -10
2629 253 13 0.02 8.169070894996945 -36.199348726703725 14.53883080275152 0 -6 -10
2634 254 14 0.0849 9.163632361166487 -37.36659418305829 14.503452292163791 0 -6 -10
2641 255 14 0.0849 10.481818242962746 -36.02391608357348 12.707974600969244 0 -6 -10
2675 260 14 0.04 9.262188239778885 -32.57170725808659 0.28967898649845714 0 -6 -9
7367 713 11 -0.004194 9.731216649437693 -33.47433617461489 10.170320798123093 1 -6 -10
2340 224 14 0.04 6.83102947047032 -33.21915860862422 6.980711891831277 1 -6 -10
7402 718 13 0.02 4.960303337364876 -45.40099482685961 8.678740723736986 1 -6 -10
2671 259 13 0.02 5.960037832948468 -46.095510675155964 9.372561631270775 0 -6 -10
2360 224 13 0.02 3.031837505485613 -40.205768712311 7.1185746990914485 1 -6 -10
8659 841 14 0.04 9.853678616864844 -46.95591986771363 2.063649556253735 0 -5 -9
8654 841 14 0.04 11.357824011427148 -45.04272501240771 2.6809727556200458 0 -5 -9
1291 123 14 0.04 12.20472284801014 -45.72495235411306 9.252558805222193 0 -4 -10
7444 722 13 0.02 9.581033503363127 -32.5278656975663 3.461288550110607 0 -5 -9
1300 123 13 0.02 12.128132835195004 -46.39170673481916 6.3481626270949665 0 -4 -10
4 1 13 0.02 10.856084870200457 -45.76646896475975 6.296025477955729 0 -4 -10
11272 1092 14 0.0849 7.297717302546942 -45.64438283026979 0.7818771441688481 0 -5 -9
8656 841 2 -0.04283 10.07730054003601 -45.61308381785008 2.4568124954926223 0 -5 -9
5134 498 14 0.0849 5.008647123744918 -45.85808904644006 13.13004584375504 0 -6 -10
1249 121 14 0.0849 11.913581519364616 -33.064092205068036 3.0186815224758856 0 -4 -9
7442 722 14 0.04 8.453637008589974 -31.726787187799655 3.305427300472935 0 -5 -9
1243 121 14 0.04 11.507033665049162 -30.977331157821528 2.5081186326578506 0 -4 -9
7372 714 14 0.0849 8.85760667711724 -34.72289349934562 9.882064248561525 1 -6 -10
2354 224 13 0.02 3.5696248132461323 -37.93664633515289 7.4227481991787485 1 -6 -10
7407 719 14 0.0849 3.766094333198353 -46.032786366983416 7.967525850021057 -1 -6 -10
12169 1181 15 -0.2367 3.1475594253608126 -41.34834879941402 3.849250414395305 1 -5 -9
1258 121 13 0.02 12.020687249014072 -36.5016431348872 2.8169878135494026 0 -4 -9
12255 1185 13 0.02 4.261213100301389 -34.29694988653332 2.458916215870848 1 -5 -9
7490 724 14 0.04 10.601605656098084 19.179987852749317 10.797280070907336 0 -6 -10
11286 1094 14 0.0849 5.871092327438116 -30.417558068649527 1.22077392158292 0 -6 -9
2566 244 13 0.02 8.975814793227242 -31.304818669927243 0.8855843130752604 0 -6 -9
2564 244 14 0.04 9.23728353278287 -30.25649651725353 0.022869474756351933 0 -6 -9
5106 494 14 0.0849 6.1667401865235645 -34.80207970568794 14.081601656118957 0 -6 -10
7456 722 13 0.02 10.860826732690766 -36.93212052225773 3.483540456622219 0 -5 -9
7450 722 13 0.02 10.34115357553052 -34.74528389056917 4.006593150829128 0 -5 -9
2676 260 13 0.02 8.27179161727926 -33.57420832399531 -0.39365369823034563 0 -6 -9
7386 716 14 0.0849 7.067474657025405 -39.408856817176925 9.226371087252197 1 -6 -10
2358 224 14 0.04 4.005898984338598 -39.23394214102947 7.256434235248362 1 -6 -10
5148 500 11 -0.004194 7.20688048377 -30.790249498241632 13.825813019014134 0 -6 -10
2627 253 14 0.0849 8.939197440249934 -34.952690784936465 -0.3554231254761241 0 -6 -9
7393 717 14 0.0849 6.013096681086927 -41.681776006602185 8.926619877189443 1 -6 -10
7453 722 14 0.0849 10.004004209502702 -36.09353979321294 4.214511861604224 0 -5 -9
2674 260 13 0.02 10.220548213583887 -32.50940981827464 -0.7341300438954264 0 -6 -9
1246 121 13 0.02 10.872870476073409 -32.13866702439956 3.0088913993190007 0 -4 -9
11288 1094 13 0.02 5.267691326256604 -31.720848557330758 1.7529670110568676 0 -6 -9
7381 715 13 0.02 8.086320998154976 -38.56502614188141 9.996114391457885 1 -6 -10
7447 722 14 0.04 9.325308817424622 -33.78716228490794 4.02237562193414 0 -5 -9
1297 123 14 0.0849 12.477925668893134 19.387116844941943 7.492188676756438 0 -5 -10
2348 224 13 0.02 4.459329719659062 -35.827950282652786 7.349886496678846 1 -6 -10
7365 713 14 0.0849 9.00512890679087 -32.11547711199342 9.959924671285965 1 -6 -10
5085 491 14 0.0849 3.3351493397191145 12.56368010246545 11.181399223090251 0 -6 -10
4837 465 14 0.0849 3.009580759235851 -33.735410736369026 6.966404459667892 1 -6 -10
7400 718 14 0.0849 4.91010919985957 -43.8876520907158 8.511542644332009 1 -6 -10
2421 233 14 0.0849 3.026691294305096 -43.70188632160079 5.836147877427661 1 -6 -10
1242 121 13 0.02 12.794290996310185 -31.39919028084356 2.1607616310277638 0 -4 -9
7 1 14 0.04 9.653338771393686 -46.4469991355125 6.27890589256878 0 -4 -10
12262 1186 13 0.02 3.9296885215788877 -31.797758060699334 2.1462606775864246 1 -5 -9
2330 223 13 0.02 8.641886785813707 -30.17175715294853 6.511021740338574 1 -6 -10
12253 1185 14 0.0849 3.300287102101822 -33.11192743767618 2.5879011034790342 1 -5 -9
7626 741 13 0.02 14.140150753237133 -14.049339975084445 1.0399038797884472 0 -3 -7
2585 247 14 0.0849 4.223610291919321 7.089704122607772 7.397772221133061 0 -6 -10
2310 222 14 0.04 10.564371621905925 -25.073665434812753 6.820900779776228 1 -6 -10
4872 470 14 0.0849 5.375514436509879 -23.243271960513454 4.24855402370721 1 -6 -10
1342 126 14 0.0849 12.746272201699679 -24.054253947620964 14.29803321553127 0 -4 -10
7538 728 11 -0.004194 10.794908863159744 -13.786173558434736 0.26425550082188026 0 -5 -9
7418 721 14 0.04 10.463667530261004 -22.853157158209854 0.5230586036997377 0 -5 -9
11192 1083 14 0.04 4.514668407167762 -14.443208766059447 10.79770562268596 0 -6 -10
2536 243 13 0.02 7.9146096176298295 -23.213785191273242 10.669566599301525 0 -6 -10
1351 127 13 0.02 12.287550861270326 -22.557655637518305 14.112995344404556 0 -4 -10
2533 243 14 0.0849 8.137611242461498 -21.941519739100944 10.188602665731246 0 -6 -10
185 17 11 -0.004194 13.900539237388697 -23.220529786666155 8.538494105377405 0 -5 -10
7517 725 13 0.02 11.336958514534116 -21.936859256190782 -0.38329650991462544 0 -5 -9
7302 704 14 0.04 8.36273321747169 -27.20416958246462 8.948136025503448 1 -6 -10
11209 1084 14 0.0849 4.397791885106377 -21.412548165962995 12.849990802984047 0 -6 -10
2548 244 13 0.02 9.90309039588782 -24.804478217966164 14.382238131127965 0 -6 -10
11203 1084 14 0.04 4.280073028884178 -19.155612505983132 12.02668758661899 0 -6 -10
1337 125 11 -0.004194 12.059719229406172 -27.190010153313334 1.5132591378846294 0 -4 -9
1335 125 14 0.0849 12.54149673244811 -26.477352415779652 0.20873799707153892 0 -4 -9
7420 721 13 0.02 10.019773729353044 -24.180996155387263 0.2792174867504902 0 -5 -9
7280 703 13 0.02 7.655106482592029 -19.833587705894065 5.0220635125996385 1 -6 -10
2540 243 14 0.04 8.966505267214144 -23.54359691479652 11.48159766376589 0 -6 -10
1344 126 11 -0.004194 12.46029976931206 -24.916432209142265 0.20485445319228504 0 -4 -9
8816 854 13 0.02 12.39350864542808 -18.43455681415203 10.248796500993164 0 -6 -9
2309 222 13 -0.3605 11.786611335740327 -25.208075395461503 6.159341727438018 1 -6 -10
2311 222 15 -0.2367 12.497871501872526 -26.410508899273488 6.281746899807178 1 -6 -10
2542 243 13 0.02 8.895023218551 -24.722204782410532 12.199792481275328 0 -6 -10
7423 721 14 0.04 9.569450666018657 -24.986832323117707 1.3566706867949634 0 -5 -9
169 15 14 0.0849 11.551751143759374 -17.86249602272927 6.011403100319534 0 -5 -10
11198 1084 14 0.04 4.352592666353836 -16.808150668070148 11.323433230231043 0 -6 -10
2546 244 14 0.04 9.859835223745748 -24.247062345366107 13.125037587193635 0 -6 -10
2557 244 14 0.0849 9.406146709279394 -28.172533310225173 -0.5670543053270772 0 -6 -9
2551 244 14 0.04 9.661359588581458 -26.13004235727089 14.186595585046497 0 -6 -10
5032 484 13 0.02 7.865961265013904 -25.724172109122005 11.974610060594259 0 -6 -10
1349 127 14 0.0849 13.119485303142499 -22.08040311668501 12.871491964168548 0 -4 -10
11328 1100 13 0.02 4.463048847222522 -26.903776807617955 0.27286969500741076 0 -6 -9
1370 130 14 0.0849 9.975875184427485 -15.1795253579378 11.151441717523968 0 -4 -10
2560 244 13 0.02 9.053235635540792 -28.967620925287864 0.4798789414675485 0 -6 -9
1240 121 2 -0.04283 11.178701087241219 -29.612395525839574 2.2962831252252474 0 -4 -9
1237 121 13 -0.3605 13.331346795309264 -29.398761760198788 1.4436585930197958 0 -4 -9
1238 121 14 0.04 12.13722334124919 -28.737653421383722 1.7236497721951411 0 -4 -9
7426 721 13 0.02 9.222214446686833 -26.35010857087699 1.1920383945810114 0 -5 -9
5014 483 13 0.02 4.899488967079109 -19.991980534227373 8.478709158663234 -2 -6 -10
7289 704 14 0.04 7.6432732347848065 -22.87421843120466 7.041175794656567 1 -6 -10
2554 244 13 0.02 9.422193913198331 -26.88693712239733 -0.08594148042706609 0 -6 -9
4879 471 14 0.0849 3.933004681889139 -21.132431073575358 3.5552072508857164 1 -6 -10
7429 721 14 0.0849 8.75924934340854 -27.212953853612767 2.2063749684779355 0 -5 -9
5002 483 13 0.02 3.72886051856198 -15.550293886092131 6.971768330264144 0 -6 -10
7436 721 14 0.04 8.349840285051295 -29.5702233429787 2.635746202094756 0 -5 -9
7432 721 13 0.02 8.67285878033791 -28.546371359417574 1.7504829890251927 0 -5 -9
7625 741 15 -0.2367 12.464975588296939 -14.89963079549383 3.084002508336168 0 -3 -5
11191 1083 13 -0.3605 5.792744633768727 -14.753944989269911 10.316923632579725 0 -6 -10
4999 483 14 0.04 2.8740139338884316 -14.47442789510744 6.674667175953839 0 -6 -10
7268 703 13 0.02 6.60262040287197 -15.695653598323487 3.1835338877616 1 -6 -10
11206 1084 13 0.02 3.638869881544166 -20.250688437872444 12.62818720603188 0 -6 -10
1239 121 15 -0.2367 13.550794908096732 -30.754700857681044 1.7105631813047413 0 -4 -9
8823 855 13 0.02 13.758834463018147 -20.58907193119344 10.761562778886649 0 -6 -9
2288 221 13 0.02 8.389696289968969 -17.771630868663923 3.2586906790578225 1 -6 -10
4874 470 11 -0.004194 5.7279299179890915 -24.728892830534935 3.9550354804558365 1 -6 -10
1358 128 13 0.02 13.006391819082152 -20.828457384161723 11.948492067590252 0 -4 -10
7637 741 15 -0.2367 13.664728014884961 -19.2167473674964 3.089664816047179 0 -3 -5
2530 243 13 0.02 6.982330595723297 -21.457852426950712 9.598284207306468 0 -6 -10
7265 703 14 0.04 5.7317978832144485 -14.630864563662794 3.2333812734383622 1 -6 -10
2300 222 13 0.02 9.345648142631845 -21.973357592262236 5.511332416292535 1 -6 -10
2294 222 13 0.02 8.885626438701095 -19.888467175927833 4.343197195328431 1 -6 -10
183 17 14 0.0849 12.812687650571192 -22.251238462747004 8.057332377670221 0 -5 -10
7641 741 13 0.02 14.1667828341747 -20.067128739471013 2.566479962456706 0 -3 -5
4865 469 14 0.0849 6.743021707670344 -25.42225678281577 4.907219387792731 1 -6 -10
11281 1093 13 0.02 4.8709609539519505 -29.262230173643495 1.122672797560341 0 -6 -9
7515 725 14 0.0849 10.8573114374315 -20.47647951773821 -0.06434949731010027 0 -5 -9
178 16 13 0.02 13.483361414435564 -20.900747528892165 7.781476660141639 0 -5 -10
7295 704 14 0.0849 8.006033492027838 -24.984202012876626 8.154626781719577 1 -6 -10
4935 479 14 0.0849 2.9479173088992225 -17.588926499612526 1.0019101973045257 1 -7 -10
4858 468 14 0.0849 7.92296557098637 -27.72248265977194 5.604880305903032 1 -6 -10
7524 726 11 -0.004194 11.431304409030735 -19.095895285178887 -0.49972929375026875 0 -5 -9
5022 484 13 -0.3605 4.564510620427287 -24.31709182996987 9.839604772663971 0 -6 -10
2527 243 14 0.04 7.244350389467473 -20.179946272632552 9.154326032069266 0 -6 -10
8821 855 14 0.0849 13.52548177462743 -19.348496642933974 9.945292283590703 0 -6 -9
1356 128 14 0.0849 11.886620520814898 -19.82431022815493 12.333877470441596 0 -4 -10
2282 221 13 0.02 7.7433398227203325 -15.63036965027321 2.3699326944369323 1 -6 -10
176 16 14 0.0849 12.561587368210125 -20.097021035710195 6.833820582342382 0 -5 -10
2524 243 13 0.02 6.202344623338044 -19.480346101459663 8.591526360060993 0 -6 -10
7634 741 13 -0.3605 13.745598663538889 -17.89720343828273 2.614756089625972 0 -3 -5
4860 468 13 0.02 7.710786246200752 -29.21662680746021 5.995923359958793 1 -6 -10
8854 860 13 0.02 14.042327530198294 -13.718894784395811 7.449595633161659 0 -6 -9
1365 129 13 0.02 11.623907857531279 -18.610519011652528 11.402326711351986 0 -4 -10
1372 130 11 -0.004194 10.257861624364821 -16.61433811754271 10.692586415138331 0 -4 -10
4928 478 14 0.0849 3.5177964197703977 -15.35083597577645 1.3140121853492028 1 -7 -10
5028 484 13 -0.3605 5.653640080600127 -26.06132581192296 10.981289781881484 0 -6 -10
171 15 13 0.02 12.553616293869545 -18.55702533341637 6.955236536912364 0 -5 -10
2518 242 13 0.02 5.626924431183798 -17.383121687117615 7.711227708331201 0 -6 -10
1379 131 11 -0.004194 10.405951818642551 -14.235394375896046 10.01898549425621 0 -4 -10
7412 720 13 0.02 7.426491848298431 -29.72251492800453 10.102730773429855 3 -6 -10
5018 484 14 0.04 4.689477027251043 -21.335658772610522 8.886063323595689 0 -6 -10
5005 483 14 0.0849 3.2724949679502093 -16.862418604694867 7.251498598183084 0 -6 -10
12269 1187 13 0.02 3.5292551316902663 -29.35715944627078 1.513583249047783 1 -5 -9
5008 483 13 0.02 4.282813219794744 -17.776701150167295 7.630921707382849 0 -6 -10
157 13 13 0.02 10.902673412546026 -13.980272742552481 5.406128237390986 0 -5 -10
7274 703 13 0.02 7.192732260510905 -17.7592195241808 3.98962363292338 1 -6 -10
7286 704 13 0.02 8.093823844519727 -21.899404913573946 6.149600157746518 1 -6 -10
8856 860 13 0.02 12.698655230329559 -15.698981629305836 6.772191967802847 0 -6 -9
11197 1084 13 0.02 5.6690454288816 -16.927695106062206 10.846705177261624 0 -6 -10
7292 704 13 0.02 8.472643347356389 -23.95869651095702 7.3110154617368535 1 -6 -10
5025 484 15 -0.2367 4.6573016337777045 -25.616862662118187 10.378786554461652 0 -6 -10
5020 484 13 0.02 5.737342453415274 -22.106459563812386 9.452713815134834 0 -6 -10
7531 727 11 -0.004194 11.159697177062908 -16.41699220703079 -0.17092226524417767 0 -5 -9
7522 726 14 0.0849 10.880926886171055 -17.875743771624798 0.30399054629832284 0 -5 -9
11218 1084 13 0.02 4.110390827960414 -24.62749973846906 14.581228006393628 0 -6 -10
2522 243 14 0.04 6.608707743153846 -18.220865014492105 8.194985509926614 0 -6 -10
11327 1100 14 0.04 4.991367770592167 -25.669336539059262 -0.46328913030742475 0 -6 -9
2286 221 14 0.04 8.667595022643914 -16.688109415988787 2.4068924159387795 1 -6 -10
7304 704 13 0.02 9.082719212996338 -28.412626919076335 8.87668950450791 1 -6 -10
164 14 13 0.02 11.681339057865134 -16.33179955322475 6.060326992844932 0 -5 -10
2312 222 13 0.02 10.098262650184333 -26.126705846760597 7.6001261975767465 1 -6 -10
2316 223 14 0.04 10.868112550120882 -27.27972185344379 7.6296193941456405 1 -6 -10
4881 471 11 -0.004194 4.661911637987944 -22.43720407743856 3.126444017626561 1 -6 -10
11200 1084 13 0.02 3.6574065967644316 -17.906731586397015 11.868910141149291 0 -6 -10
7278 703 14 0.04 6.784490971250127 -18.76525127541151 4.854926455406367 1 -6 -10
2292 222 14 0.04 9.250751321968357 -18.866432436923283 3.445359962892557 1 -6 -10
162 14 14 0.0849 10.638446104283018 -15.497681147392559 5.303498331925675 0 -5 -10
5012 483 14 0.04 3.9175336206058966 -19.098840685724927 7.984554108745808 0 -6 -10
2321 223 14 0.04 11.073456722614472 -29.550628287548722 7.930991148402737 1 -6 -10
2512 242 13 0.02 5.096240181173759 -15.236257854063656 7.0148653998829 0 -6 -10
5146 500 13 0.02 5.509027809973239 -29.37955607160815 12.57959249088307 0 -6 -10
2297 222 14 0.04 9.733748342633847 -20.975324120277723 4.601238828309997 1 -6 -10
2318 223 13 0.02 10.33052165859766 -28.4050896996787 8.228659044329564 1 -6 -10
2324 223 13 0.02 10.462850520156183 -30.796988377364062 8.078557372215972 1 -6 -10
5147 500 14 0.04 6.791041449299015 -29.43126646046991 13.138246994697779 0 -6 -10
11216 1084 14 0.04 4.585117561087599 -23.517885168276923 13.861513233865628 0 -6 -10
5023 484 14 0.04 5.663800958378412 -23.44983217467234 9.908456472256018 0 -6 -10
8807 853 14 0.0849 13.64669307168573 -16.37117770753907 7.7523275854949425 0 -6 -9
4888 472 11 -0.004194 3.5150390170577794 -20.128209427752097 2.443682029463919 1 -6 -10
11279 1093 14 0.0849 5.4943532578890935 -28.01605226335871 0.48716052139351734 0 -6 -9
5038 484 2 -0.04283 7.621092688216077 -28.26428672255031 12.999499749948031 0 -6 -10
5026 484 13 0.02 6.782414559012652 -24.004379889139585 10.550885731028975 0 -6 -10
2315 223 13 -0.3605 12.072608306309574 -27.37798470485483 6.931750559387165 1 -6 -10
2516 242 14 0.04 6.08741662062312 -16.123414848866723 7.380112823084628 0 -6 -10
8809 853 13 0.02 13.320809346131758 -17.84578555053558 7.892848913109709 0 -6 -9
5036 484 14 0.04 7.3589737075322486 -27.030652638428524 12.31901269993033 0 -8 -10
2306 222 13 0.02 9.719297419142755 -23.982571898311463 6.665784013291597 1 -6 -10
8814 854 14 0.0849 12.418460029597645 -17.42959168580561 9.08978286706649 0 -6 -9
1363 129 14 0.0849 10.466087367339078 -17.671275877851645 11.789214616978194 0 -4 -10
11212 1084 13 0.02 3.7447690924074384 -22.445976724698706 13.54156737587097 0 -6 -10
5029 484 14 0.0849 6.812162090979729 -25.28545527053684 11.133185443774897 0 -6 -10
11326 1100 13 0.02 6.343562445488194 -25.578465073780787 14.566571331277355 0 -6 -10
7631 741 15 -0.2367 13.098986821443791 -16.974800828165563 3.1419747218078786 0 -3 -5
2303 222 14 0.0849 10.225306974625662 -23.035560190951653 5.762491472258908 1 -6 -10
7298 704 13 0.02 8.867932552179717 -26.0841100411077 8.263149984311347 1 -6 -10
4867 469 11 -0.004194 6.734459099437357 -26.976047497866883 4.929489127837745 1 -6 -10
7284 704 14 0.04 7.243297624941872 -20.825933964051856 5.907279450850518 1 -6 -10
7271 703 14 0.0849 6.238494375578516 -16.751569200148243 4.010834089030344 1 -6 -10
7529 727 14 0.0849 10.632196204559467 -15.263026696609957 0.737678228029443 0 -5 -9
7628 741 13 -0.3605 13.133394182275474 -15.661069958476906 2.6356184300554184 0 -3 -5
11194 1083 13 0.02 3.7677237127189076 -15.531661006934778 11.294186259429688 0 -6 -10
7413 720 14 0.04 8.6215328595348 -29.64531781000468 9.380447191201606 1 -6 -10
4851 467 14 0.0849 6.202988963390205 -29.584082687060473 5.935069684255427 1 -6 -10
7629 741 14 0.04 13.99554777732096 -15.339451920251589 1.5645946405740088 0 -3 -5
11193 1083 15 -0.2367 6.25554899237098 -16.07815760150306 10.415178223955806 0 -6 -10
2279 221 14 0.0849 8.04603684497075 -14.533402861270105 1.5292389835718656 1 -6 -10
8855 860 14 0.04 12.93256006433679 -14.203479639700216 6.742850907751019 0 -6 -9
8746 844 13 0.02 12.027437911185368 -13.397909898174674 6.0363477901322575 0 -6 -9
2327 223 14 0.0849 10.026752430005569 -30.303171743414165 6.792056237039597 1 -6 -10
8716 843 13 0.02 9.43743595097334 -2.218651346380021 2.766060537862738 0 -6 -9
7751 749 13 0.02 11.096657751614762 -6.484538607742307 12.065224996541602 0 -3 -6
7559 731 13 0.02 10.990494588485184 -6.671659262601839 13.467473010103577 0 -5 -10
73 4 13 -0.3605 5.8408609780169565 -2.050526312224281 2.012304487472529 0 -5 -10
11182 1083 2 -0.04283 4.162874008037927 -10.80050435126828 10.341562816660415 0 -6 -10
2485 241 14 0.0849 4.979590191300725 -4.836788439060493 4.955485530751891 0 -6 -10
7819 759 14 0.0849 10.030852344142156 2.534115426923052 10.53537005364694 0 -4 -6
3907 379 13 0.02 11.879948151685847 -6.486936450666343 7.675465466245194 0 -4 -6
1428 138 13 0.02 10.514678889721099 -6.814889433241617 7.841863808161585 0 -5 -10
7557 731 14 0.0849 10.804755394567337 -5.358622692644834 14.323520482723184 0 -5 -10
7749 749 14 0.0849 11.222407001986046 -5.14702944169585 11.369262554035611 0 -3 -6
1426 138 14 0.0849 9.3652886997005 -5.835352666663325 7.509401428847079 0 -5 -10
3905 379 14 0.0849 12.288160862670255 -5.082034352011177 7.18413520978086 0 -4 -6
8731 844 14 0.04 11.403191676916471 -7.646309243168587 4.485964918724583 0 -6 -9
91 4 13 -0.3605 7.541020307564567 -8.622788350644917 3.2409824027126595 0 -5 -10
92 4 14 0.04 8.831601903079749 -8.342727458034751 3.6391932213795544 0 -5 -10
8728 844 13 0.02 10.569830431392978 -6.677208957378901 3.9285773905698913 0 -6 -9
88 4 13 0.02 9.27224777343935 -7.025635052244565 3.5511148116880116 0 -5 -10
1421 137 13 0.02 9.7905302614787 -4.427920122335472 7.050911379368144 0 -5 -10
3900 378 13 0.02 11.140471850478983 -4.08892797119624 6.912197999017134 0 -4 -6