LAMMPS Description

     12360  atoms
     13320  bonds
     0  angles
     0  dihedrals
     0  impropers

     15  atom types
     17  bond types

  -4 90 xlo xhi
  -52.8 24 ylo yhi
  -2 16 zlo zhi

Masses

1 14.00670  # 4_N_sp
2 12.011000  # 0_C_sp
3 12.011000  # 14_C_sp3
4 1.00800  # 0_H
5 12.011000  # 7_C_sp3
6 1.00800  # 4_H
7 12.011000  # 0_C_sp2
8 12.011000  # 14_C_sp2
9 14.00670  # 10_N_sp2
10 12.011000  # 7_C_sp2
11 14.00670  # 10_N_sp3
12 15.99940  # 13_O_sp2
13 1.00800  # 1_H
14 1.00800  # 3_H
15 15.99940  # 3_O_sp3

Atoms  # full

1 3 7 0.000000 -0.7 4.8 0.0
2 3 8 0.000000 0.7 4.8 0.0
3 3 9 0.000000 -1.4 3.6 0.0
4 3 10 0.000000 1.4 3.6 0.0
5 3 14 0.000000 2.4 3.6 0.0
6 3 7 0.000000 -0.7 2.4 0.0
7 3 8 0.000000 0.7 2.4 0.0
8 3 4 0.000000 -2.4 1.2 0.0
9 3 11 0.000000 -1.4 1.2 0.0
10 3 10 0.000000 1.4 1.2 0.0
11 3 12 0.000000 2.8 1.2 0.0
12 3 7 0.000000 -0.7 0.0 0.0
13 3 3 0.000000 0.7 0.0 0.0
14 3 13 0.000000 1.7 0.0 0.0
15 3 9 0.000000 -1.4 -1.2 0.0
16 3 5 0.000000 1.4 -1.2 0.0
17 3 14 0.000000 1.9 -1.2 0.87
18 3 14 0.000000 1.9 -1.2 -0.87
19 3 7 0.000000 -0.7 -2.4 0.0
20 3 8 0.000000 0.7 -2.4 0.0
21 3 9 0.000000 -1.4 -3.6 0.0
22 3 10 0.000000 1.4 -3.6 0.0
23 3 15 0.000000 2.8 -3.6 0.0
24 3 4 0.000000 3.3 -3.6 0.87
25 4 7 0.000000 -0.7 -4.8 0.0
26 4 8 0.000000 0.7 -4.8 0.0
27 4 9 0.000000 -1.4 -6.0 0.0
28 4 10 0.000000 1.4 -6.0 0.0
29 4 14 0.000000 2.4 -6.0 0.0
30 4 7 0.000000 -0.7 -7.2 0.0
31 4 8 0.000000 0.7 -7.2 0.0
32 4 4 0.000000 -2.4 -8.4 0.0
33 4 11 0.000000 -1.4 -8.4 0.0
34 4 10 0.000000 1.4 -8.4 0.0
35 4 12 0.000000 2.8 -8.4 0.0
36 4 7 0.000000 -0.7 -9.6 0.0
37 4 3 0.000000 0.7 -9.6 0.0
38 4 13 0.000000 1.7 -9.6 0.0
39 4 9 0.000000 -1.4 -10.8 0.0
40 4 5 0.000000 1.4 -10.8 0.0
41 4 14 0.000000 1.9 -10.8 0.87
42 4 14 0.000000 1.9 -10.8 -0.87
43 4 7 0.000000 -0.7 -12.0 0.0
44 4 8 0.000000 0.7 -12.0 0.0
45 4 9 0.000000 -1.4 -13.2 0.0
46 4 10 0.000000 1.4 -13.2 0.0
47 4 15 0.000000 2.8 -13.2 0.0
48 4 4 0.000000 3.3 -13.2 0.87
49 5 7 0.000000 -0.7 -14.4 0.0
50 5 8 0.000000 0.7 -14.4 0.0
51 5 9 0.000000 -1.4 -15.6 0.0
52 5 10 0.000000 1.4 -15.6 0.0
53 5 14 0.000000 2.4 -15.6 0.0
54 5 7 0.000000 -0.7 -16.8 0.0
55 5 8 0.000000 0.7 -16.8 0.0
56 5 4 0.000000 -2.4 -18.0 0.0
57 5 11 0.000000 -1.4 -18.0 0.0
58 5 10 0.000000 1.4 -18.0 0.0
59 5 12 0.000000 2.8 -18.0 0.0
60 5 7 0.000000 -0.7 -19.2 0.0
61 5 3 0.000000 0.7 -19.2 0.0
62 5 13 0.000000 1.7 -19.2 0.0
63 5 9 0.000000 -1.4 -20.4 0.0
64 5 5 0.000000 1.4 -20.4 0.0
65 5 14 0.000000 1.9 -20.4 0.87
66 5 14 0.000000 1.9 -20.4 -0.87
67 5 7 0.000000 -0.7 -21.6 0.0
68 5 8 0.000000 0.7 -21.6 0.0
69 5 9 0.000000 -1.4 -22.8 0.0
70 5 10 0.000000 1.4 -22.8 0.0
71 5 15 0.000000 2.8 -22.8 0.0
72 5 4 0.000000 3.3 -22.8 0.87
73 6 7 0.000000 -0.7 -24.0 0.0
74 6 8 0.000000 0.7 -24.0 0.0
75 6 9 0.000000 -1.4 -25.2 0.0
76 6 10 0.000000 1.4 -25.2 0.0
77 6 14 0.000000 2.4 -25.2 0.0
78 6 7 0.000000 -0.7 -26.4 0.0
79 6 8 0.000000 0.7 -26.4 0.0
80 6 4 0.000000 -2.4 -27.6 0.0
81 6 11 0.000000 -1.4 -27.6 0.0
82 6 10 0.000000 1.4 -27.6 0.0
83 6 12 0.000000 2.8 -27.6 0.0
84 6 7 0.000000 -0.7 -28.8 0.0
85 6 3 0.000000 0.7 -28.8 0.0
86 6 13 0.000000 1.7 -28.8 0.0
87 6 9 0.000000 -1.4 -30.0 0.0
88 6 5 0.000000 1.4 -30.0 0.0
89 6 14 0.000000 1.9 -30.0 0.87
90 6 14 0.000000 1.9 -30.0 -0.87
91 6 7 0.000000 -0.7 -31.2 0.0
92 6 8 0.000000 0.7 -31.2 0.0
93 6 9 0.000000 -1.4 -32.4 0.0
94 6 10 0.000000 1.4 -32.4 0.0
95 6 15 0.000000 2.8 -32.4 0.0
96 6 4 0.000000 3.3 -32.4 0.87
97 7 1 0.000000 -1.4 6.0 0.0
98 7 2 0.000000 -0.7 7.2 0.0
99 7 3 0.000000 0.7 7.2 0.0
100 7 4 0.000000 1.7 7.2 0.0
101 7 5 0.000000 1.4 6.0 0.0
102 7 6 0.000000 1.9 6.0 0.87
103 7 6 0.000000 1.9 6.0 -0.87
104 8 1 0.000000 -1.4 8.4 0.0
105 8 2 0.000000 -0.7 9.6 0.0
106 8 3 0.000000 0.7 9.6 0.0
107 8 4 0.000000 1.7 9.6 0.0
108 8 5 0.000000 1.4 8.4 0.0
109 8 6 0.000000 1.9 8.4 0.87
110 8 6 0.000000 1.9 8.4 -0.87
111 9 1 0.000000 -1.4 10.8 0.0
112 9 2 0.000000 -0.7 12.0 0.0
113 9 3 0.000000 0.7 12.0 0.0
114 9 4 0.000000 1.7 12.0 0.0
115 9 5 0.000000 1.4 10.8 0.0
116 9 6 0.000000 1.9 10.8 0.87
117 9 6 0.000000 1.9 10.8 -0.87
118 10 1 0.000000 -1.4 13.2 0.0
119 10 2 0.000000 -0.7 14.4 0.0
120 10 3 0.000000 0.7 14.4 0.0
121 10 4 0.000000 1.7 14.4 0.0
122 10 5 0.000000 1.4 13.2 0.0
123 10 6 0.000000 1.9 13.2 0.87
124 10 6 0.000000 1.9 13.2 -0.87
125 11 1 0.000000 -1.4 15.6 0.0
126 11 2 0.000000 -0.7 16.8 0.0
127 11 3 0.000000 0.7 16.8 0.0
128 11 4 0.000000 1.7 16.8 0.0
129 11 5 0.000000 1.4 15.6 0.0
130 11 6 0.000000 1.9 15.6 0.87
131 11 6 0.000000 1.9 15.6 -0.87
132 12 1 0.000000 -1.4 18.0 0.0
133 12 2 0.000000 -0.7 19.2 0.0
134 12 3 0.000000 0.7 19.2 0.0
135 12 4 0.000000 1.7 19.2 0.0
136 12 5 0.000000 1.4 18.0 0.0
137 12 6 0.000000 1.9 18.0 0.87
138 12 6 0.000000 1.9 18.0 -0.87
139 13 1 0.000000 -1.4 20.4 0.0
140 13 2 0.000000 -0.7 21.6 0.0
141 13 3 0.000000 0.7 21.6 0.0
142 13 4 0.000000 1.7 21.6 0.0
143 13 5 0.000000 1.4 20.4 0.0
144 13 6 0.000000 1.9 20.4 0.87
145 13 6 0.000000 1.9 20.4 -0.87
146 14 1 0.000000 -1.4 22.8 0.0
147 14 2 0.000000 -0.7 24.0 0.0
148 14 3 0.000000 0.7 24.0 0.0
149 14 4 0.000000 1.7 24.0 0.0
150 14 5 0.000000 1.4 22.8 0.0
151 14 6 0.000000 1.9 22.8 0.87
152 14 6 0.000000 1.9 22.8 -0.87
153 15 1 0.000000 -1.4 -37.2 0.0
154 15 2 0.000000 -0.7 -36.0 0.0
155 15 3 0.000000 0.7 -36.0 0.0
156 15 4 0.000000 1.7 -36.0 0.0
157 15 5 0.000000 1.4 -37.2 0.0
158 15 6 0.000000 1.9 -37.2 0.87
159 15 6 0.000000 1.9 -37.2 -0.87
160 16 1 0.000000 -1.4 -39.6 0.0
161 16 2 0.000000 -0.7 -38.4 0.0
162 16 3 0.000000 0.7 -38.4 0.0
163 16 4 0.000000 1.7 -38.4 0.0
164 16 5 0.000000 1.4 -39.6 0.0
165 16 6 0.000000 1.9 -39.6 0.87
166 16 6 0.000000 1.9 -39.6 -0.87
167 17 1 0.000000 -1.4 -42.0 0.0
168 17 2 0.000000 -0.7 -40.8 0.0
169 17 3 0.000000 0.7 -40.8 0.0
170 17 4 0.000000 1.7 -40.8 0.0
171 17 5 0.000000 1.4 -42.0 0.0
172 17 6 0.000000 1.9 -42.0 0.87
173 17 6 0.000000 1.9 -42.0 -0.87
174 18 1 0.000000 -1.4 -44.4 0.0
175 18 2 0.000000 -0.7 -43.2 0.0
176 18 3 0.000000 0.7 -43.2 0.0
177 18 4 0.000000 1.7 -43.2 0.0
178 18 5 0.000000 1.4 -44.4 0.0
179 18 6 0.000000 1.9 -44.4 0.87
180 18 6 0.000000 1.9 -44.4 -0.87
181 19 1 0.000000 -1.4 -46.8 0.0
182 19 2 0.000000 -0.7 -45.6 0.0
183 19 3 0.000000 0.7 -45.6 0.0
184 19 4 0.000000 1.7 -45.6 0.0
185 19 5 0.000000 1.4 -46.8 0.0
186 19 6 0.000000 1.9 -46.8 0.87
187 19 6 0.000000 1.9 -46.8 -0.87
188 20 1 0.000000 -1.4 -49.2 0.0
189 20 2 0.000000 -0.7 -48.0 0.0
190 20 3 0.000000 0.7 -48.0 0.0
191 20 4 0.000000 1.7 -48.0 0.0
192 20 5 0.000000 1.4 -49.2 0.0
193 20 6 0.000000 1.9 -49.2 0.87
194 20 6 0.000000 1.9 -49.2 -0.87
195 21 1 0.000000 -1.4 -51.6 0.0
196 21 2 0.000000 -0.7 -50.4 0.0
197 21 3 0.000000 0.7 -50.4 0.0
198 21 4 0.000000 1.7 -50.4 0.0
199 21 5 0.000000 1.4 -51.6 0.0
200 21 6 0.000000 1.9 -51.6 0.87
201 21 6 0.000000 1.9 -51.6 -0.87
202 22 7 0.000000 -0.7 -33.6 0.0
203 22 8 0.000000 0.7 -33.6 0.0
204 22 5 0.000000 1.4 -34.8 0.0
205 22 6 0.000000 1.9 -34.8 0.87
206 22 6 0.000000 1.9 -34.8 -0.87
207 24 7 0.000000 14.8 4.8 0.0
208 24 8 0.000000 16.2 4.8 0.0
209 24 9 0.000000 14.1 3.6 0.0
210 24 10 0.000000 16.9 3.6 0.0
211 24 14 0.000000 17.9 3.6 0.0
212 24 7 0.000000 14.8 2.4 0.0
213 24 8 0.000000 16.2 2.4 0.0
214 24 4 0.000000 13.1 1.2 0.0
215 24 11 0.000000 14.1 1.2 0.0
216 24 10 0.000000 16.9 1.2 0.0
217 24 12 0.000000 18.3 1.2 0.0
218 24 7 0.000000 14.8 0.0 0.0
219 24 3 0.000000 16.2 0.0 0.0
220 24 13 0.000000 17.2 0.0 0.0
221 24 9 0.000000 14.1 -1.2 0.0
222 24 5 0.000000 16.9 -1.2 0.0
223 24 14 0.000000 17.4 -1.2 0.87
224 24 14 0.000000 17.4 -1.2 -0.87
225 24 7 0.000000 14.8 -2.4 0.0
226 24 8 0.000000 16.2 -2.4 0.0
227 24 9 0.000000 14.1 -3.6 0.0
228 24 10 0.000000 16.9 -3.6 0.0
229 24 15 0.000000 18.3 -3.6 0.0
230 24 4 0.000000 18.8 -3.6 0.87
231 25 7 0.000000 14.8 -4.8 0.0
232 25 8 0.000000 16.2 -4.8 0.0
233 25 9 0.000000 14.1 -6.0 0.0
234 25 10 0.000000 16.9 -6.0 0.0
235 25 14 0.000000 17.9 -6.0 0.0
236 25 7 0.000000 14.8 -7.2 0.0
237 25 8 0.000000 16.2 -7.2 0.0
238 25 4 0.000000 13.1 -8.4 0.0
239 25 11 0.000000 14.1 -8.4 0.0
240 25 10 0.000000 16.9 -8.4 0.0
241 25 12 0.000000 18.3 -8.4 0.0
242 25 7 0.000000 14.8 -9.6 0.0
243 25 3 0.000000 16.2 -9.6 0.0
244 25 13 0.000000 17.2 -9.6 0.0
245 25 9 0.000000 14.1 -10.8 0.0
246 25 5 0.000000 16.9 -10.8 0.0
247 25 14 0.000000 17.4 -10.8 0.87
248 25 14 0.000000 17.4 -10.8 -0.87
249 25 7 0.000000 14.8 -12.0 0.0
250 25 8 0.000000 16.2 -12.0 0.0
251 25 9 0.000000 14.1 -13.2 0.0
252 25 10 0.000000 16.9 -13.2 0.0
253 25 15 0.000000 18.3 -13.2 0.0
254 25 4 0.000000 18.8 -13.2 0.87
255 26 7 0.000000 14.8 -14.4 0.0
256 26 8 0.000000 16.2 -14.4 0.0
257 26 9 0.000000 14.1 -15.6 0.0
258 26 10 0.000000 16.9 -15.6 0.0
259 26 14 0.000000 17.9 -15.6 0.0
260 26 7 0.000000 14.8 -16.8 0.0
261 26 8 0.000000 16.2 -16.8 0.0
262 26 4 0.000000 13.1 -18.0 0.0
263 26 11 0.000000 14.1 -18.0 0.0
264 26 10 0.000000 16.9 -18.0 0.0
265 26 12 0.000000 18.3 -18.0 0.0
266 26 7 0.000000 14.8 -19.2 0.0
267 26 3 0.000000 16.2 -19.2 0.0
268 26 13 0.000000 17.2 -19.2 0.0
269 26 9 0.000000 14.1 -20.4 0.0
270 26 5 0.000000 16.9 -20.4 0.0
271 26 14 0.000000 17.4 -20.4 0.87
272 26 14 0.000000 17.4 -20.4 -0.87
273 26 7 0.000000 14.8 -21.6 0.0
274 26 8 0.000000 16.2 -21.6 0.0
275 26 9 0.000000 14.1 -22.8 0.0
276 26 10 0.000000 16.9 -22.8 0.0
277 26 15 0.000000 18.3 -22.8 0.0
278 26 4 0.000000 18.8 -22.8 0.87
279 27 7 0.000000 14.8 -24.0 0.0
280 27 8 0.000000 16.2 -24.0 0.0
281 27 9 0.000000 14.1 -25.2 0.0
282 27 10 0.000000 16.9 -25.2 0.0
283 27 14 0.000000 17.9 -25.2 0.0
284 27 7 0.000000 14.8 -26.4 0.0
285 27 8 0.000000 16.2 -26.4 0.0
286 27 4 0.000000 13.1 -27.6 0.0
287 27 11 0.000000 14.1 -27.6 0.0
288 27 10 0.000000 16.9 -27.6 0.0
289 27 12 0.000000 18.3 -27.6 0.0
290 27 7 0.000000 14.8 -28.8 0.0
291 27 3 0.000000 16.2 -28.8 0.0
292 27 13 0.000000 17.2 -28.8 0.0
293 27 9 0.000000 14.1 -30.0 0.0
294 27 5 0.000000 16.9 -30.0 0.0
295 27 14 0.000000 17.4 -30.0 0.87
296 27 14 0.000000 17.4 -30.0 -0.87
297 27 7 0.000000 14.8 -31.2 0.0
298 27 8 0.000000 16.2 -31.2 0.0
299 27 9 0.000000 14.1 -32.4 0.0
300 27 10 0.000000 16.9 -32.4 0.0
301 27 15 0.000000 18.3 -32.4 0.0
302 27 4 0.000000 18.8 -32.4 0.87
303 28 1 0.000000 14.1 6.0 0.0
304 28 2 0.000000 14.8 7.2 0.0
305 28 3 0.000000 16.2 7.2 0.0
306 28 4 0.000000 17.2 7.2 0.0
307 28 5 0.000000 16.9 6.0 0.0
308 28 6 0.000000 17.4 6.0 0.87
309 28 6 0.000000 17.4 6.0 -0.87
310 29 1 0.000000 14.1 8.4 0.0
311 29 2 0.000000 14.8 9.6 0.0
312 29 3 0.000000 16.2 9.6 0.0
313 29 4 0.000000 17.2 9.6 0.0
314 29 5 0.000000 16.9 8.4 0.0
315 29 6 0.000000 17.4 8.4 0.87
316 29 6 0.000000 17.4 8.4 -0.87
317 30 1 0.000000 14.1 10.8 0.0
318 30 2 0.000000 14.8 12.0 0.0
319 30 3 0.000000 16.2 12.0 0.0
320 30 4 0.000000 17.2 12.0 0.0
321 30 5 0.000000 16.9 10.8 0.0
322 30 6 0.000000 17.4 10.8 0.87
323 30 6 0.000000 17.4 10.8 -0.87
324 31 1 0.000000 14.1 13.2 0.0
325 31 2 0.000000 14.8 14.4 0.0
326 31 3 0.000000 16.2 14.4 0.0
327 31 4 0.000000 17.2 14.4 0.0
328 31 5 0.000000 16.9 13.2 0.0
329 31 6 0.000000 17.4 13.2 0.87
330 31 6 0.000000 17.4 13.2 -0.87
331 32 1 0.000000 14.1 15.6 0.0
332 32 2 0.000000 14.8 16.8 0.0
333 32 3 0.000000 16.2 16.8 0.0
334 32 4 0.000000 17.2 16.8 0.0
335 32 5 0.000000 16.9 15.6 0.0
336 32 6 0.000000 17.4 15.6 0.87
337 32 6 0.000000 17.4 15.6 -0.87
338 33 1 0.000000 14.1 18.0 0.0
339 33 2 0.000000 14.8 19.2 0.0
340 33 3 0.000000 16.2 19.2 0.0
341 33 4 0.000000 17.2 19.2 0.0
342 33 5 0.000000 16.9 18.0 0.0
343 33 6 0.000000 17.4 18.0 0.87
344 33 6 0.000000 17.4 18.0 -0.87
345 34 1 0.000000 14.1 20.4 0.0
346 34 2 0.000000 14.8 21.6 0.0
347 34 3 0.000000 16.2 21.6 0.0
348 34 4 0.000000 17.2 21.6 0.0
349 34 5 0.000000 16.9 20.4 0.0
350 34 6 0.000000 17.4 20.4 0.87
351 34 6 0.000000 17.4 20.4 -0.87
352 35 1 0.000000 14.1 22.8 0.0
353 35 2 0.000000 14.8 24.0 0.0
354 35 3 0.000000 16.2 24.0 0.0
355 35 4 0.000000 17.2 24.0 0.0
356 35 5 0.000000 16.9 22.8 0.0
357 35 6 0.000000 17.4 22.8 0.87
358 35 6 0.000000 17.4 22.8 -0.87
359 36 1 0.000000 14.1 -37.2 0.0
360 36 2 0.000000 14.8 -36.0 0.0
361 36 3 0.000000 16.2 -36.0 0.0
362 36 4 0.000000 17.2 -36.0 0.0
363 36 5 0.000000 16.9 -37.2 0.0
364 36 6 0.000000 17.4 -37.2 0.87
365 36 6 0.000000 17.4 -37.2 -0.87
366 37 1 0.000000 14.1 -39.6 0.0
367 37 2 0.000000 14.8 -38.4 0.0
368 37 3 0.000000 16.2 -38.4 0.0
369 37 4 0.000000 17.2 -38.4 0.0
370 37 5 0.000000 16.9 -39.6 0.0
371 37 6 0.000000 17.4 -39.6 0.87
372 37 6 0.000000 17.4 -39.6 -0.87
373 38 1 0.000000 14.1 -42.0 0.0
374 38 2 0.000000 14.8 -40.8 0.0
375 38 3 0.000000 16.2 -40.8 0.0
376 38 4 0.000000 17.2 -40.8 0.0
377 38 5 0.000000 16.9 -42.0 0.0
378 38 6 0.000000 17.4 -42.0 0.87
379 38 6 0.000000 17.4 -42.0 -0.87
380 39 1 0.000000 14.1 -44.4 0.0
381 39 2 0.000000 14.8 -43.2 0.0
382 39 3 0.000000 16.2 -43.2 0.0
383 39 4 0.000000 17.2 -43.2 0.0
384 39 5 0.000000 16.9 -44.4 0.0
385 39 6 0.000000 17.4 -44.4 0.87
386 39 6 0.000000 17.4 -44.4 -0.87
387 40 1 0.000000 14.1 -46.8 0.0
388 40 2 0.000000 14.8 -45.6 0.0
389 40 3 0.000000 16.2 -45.6 0.0
390 40 4 0.000000 17.2 -45.6 0.0
391 40 5 0.000000 16.9 -46.8 0.0
392 40 6 0.000000 17.4 -46.8 0.87
393 40 6 0.000000 17.4 -46.8 -0.87
394 41 1 0.000000 14.1 -49.2 0.0
395 41 2 0.000000 14.8 -48.0 0.0
396 41 3 0.000000 16.2 -48.0 0.0
397 41 4 0.000000 17.2 -48.0 0.0
398 41 5 0.000000 16.9 -49.2 0.0
399 41 6 0.000000 17.4 -49.2 0.87
400 41 6 0.000000 17.4 -49.2 -0.87
401 42 1 0.000000 14.1 -51.6 0.0
402 42 2 0.000000 14.8 -50.4 0.0
403 42 3 0.000000 16.2 -50.4 0.0
404 42 4 0.000000 17.2 -50.4 0.0
405 42 5 0.000000 16.9 -51.6 0.0
406 42 6 0.000000 17.4 -51.6 0.87
407 42 6 0.000000 17.4 -51.6 -0.87
408 43 7 0.000000 14.8 -33.6 0.0
409 43 8 0.000000 16.2 -33.6 0.0
410 43 5 0.000000 16.9 -34.8 0.0
411 43 6 0.000000 17.4 -34.8 0.87
412 43 6 0.000000 17.4 -34.8 -0.87
413 45 7 0.000000 30.3 4.8 0.0
414 45 8 0.000000 31.7 4.8 0.0
415 45 9 0.000000 29.6 3.6 0.0
416 45 10 0.000000 32.4 3.6 0.0
417 45 14 0.000000 33.4 3.6 0.0
418 45 7 0.000000 30.3 2.4 0.0
419 45 8 0.000000 31.7 2.4 0.0
420 45 4 0.000000 28.6 1.2 0.0
421 45 11 0.000000 29.6 1.2 0.0
422 45 10 0.000000 32.4 1.2 0.0
423 45 12 0.000000 33.8 1.2 0.0
424 45 7 0.000000 30.3 0.0 0.0
425 45 3 0.000000 31.7 0.0 0.0
426 45 13 0.000000 32.7 0.0 0.0
427 45 9 0.000000 29.6 -1.2 0.0
428 45 5 0.000000 32.4 -1.2 0.0
429 45 14 0.000000 32.9 -1.2 0.87
430 45 14 0.000000 32.9 -1.2 -0.87
431 45 7 0.000000 30.3 -2.4 0.0
432 45 8 0.000000 31.7 -2.4 0.0
433 45 9 0.000000 29.6 -3.6 0.0
434 45 10 0.000000 32.4 -3.6 0.0
435 45 15 0.000000 33.8 -3.6 0.0
436 45 4 0.000000 34.3 -3.6 0.87
437 46 7 0.000000 30.3 -4.8 0.0
438 46 8 0.000000 31.7 -4.8 0.0
439 46 9 0.000000 29.6 -6.0 0.0
440 46 10 0.000000 32.4 -6.0 0.0
441 46 14 0.000000 33.4 -6.0 0.0
442 46 7 0.000000 30.3 -7.2 0.0
443 46 8 0.000000 31.7 -7.2 0.0
444 46 4 0.000000 28.6 -8.4 0.0
445 46 11 0.000000 29.6 -8.4 0.0
446 46 10 0.000000 32.4 -8.4 0.0
447 46 12 0.000000 33.8 -8.4 0.0
448 46 7 0.000000 30.3 -9.6 0.0
449 46 3 0.000000 31.7 -9.6 0.0
450 46 13 0.000000 32.7 -9.6 0.0
451 46 9 0.000000 29.6 -10.8 0.0
452 46 5 0.000000 32.4 -10.8 0.0
453 46 14 0.000000 32.9 -10.8 0.87
454 46 14 0.000000 32.9 -10.8 -0.87
455 46 7 0.000000 30.3 -12.0 0.0
456 46 8 0.000000 31.7 -12.0 0.0
457 46 9 0.000000 29.6 -13.2 0.0
458 46 10 0.000000 32.4 -13.2 0.0
459 46 15 0.000000 33.8 -13.2 0.0
460 46 4 0.000000 34.3 -13.2 0.87
461 47 7 0.000000 30.3 -14.4 0.0
462 47 8 0.000000 31.7 -14.4 0.0
463 47 9 0.000000 29.6 -15.6 0.0
464 47 10 0.000000 32.4 -15.6 0.0
465 47 14 0.000000 33.4 -15.6 0.0
466 47 7 0.000000 30.3 -16.8 0.0
467 47 8 0.000000 31.7 -16.8 0.0
468 47 4 0.000000 28.6 -18.0 0.0
469 47 11 0.000000 29.6 -18.0 0.0
470 47 10 0.000000 32.4 -18.0 0.0
471 47 12 0.000000 33.8 -18.0 0.0
472 47 7 0.000000 30.3 -19.2 0.0
473 47 3 0.000000 31.7 -19.2 0.0
474 47 13 0.000000 32.7 -19.2 0.0
475 47 9 0.000000 29.6 -20.4 0.0
476 47 5 0.000000 32.4 -20.4 0.0
477 47 14 0.000000 32.9 -20.4 0.87
478 47 14 0.000000 32.9 -20.4 -0.87
479 47 7 0.000000 30.3 -21.6 0.0
480 47 8 0.000000 31.7 -21.6 0.0
481 47 9 0.000000 29.6 -22.8 0.0
482 47 10 0.000000 32.4 -22.8 0.0
483 47 15 0.000000 33.8 -22.8 0.0
484 47 4 0.000000 34.3 -22.8 0.87
485 48 7 0.000000 30.3 -24.0 0.0
486 48 8 0.000000 31.7 -24.0 0.0
487 48 9 0.000000 29.6 -25.2 0.0
488 48 10 0.000000 32.4 -25.2 0.0
489 48 14 0.000000 33.4 -25.2 0.0
490 48 7 0.000000 30.3 -26.4 0.0
491 48 8 0.000000 31.7 -26.4 0.0
492 48 4 0.000000 28.6 -27.6 0.0
493 48 11 0.000000 29.6 -27.6 0.0
494 48 10 0.000000 32.4 -27.6 0.0
495 48 12 0.000000 33.8 -27.6 0.0
496 48 7 0.000000 30.3 -28.8 0.0
497 48 3 0.000000 31.7 -28.8 0.0
498 48 13 0.000000 32.7 -28.8 0.0
499 48 9 0.000000 29.6 -30.0 0.0
500 48 5 0.000000 32.4 -30.0 0.0
501 48 14 0.000000 32.9 -30.0 0.87
502 48 14 0.000000 32.9 -30.0 -0.87
503 48 7 0.000000 30.3 -31.2 0.0
504 48 8 0.000000 31.7 -31.2 0.0
505 48 9 0.000000 29.6 -32.4 0.0
506 48 10 0.000000 32.4 -32.4 0.0
507 48 15 0.000000 33.8 -32.4 0.0
508 48 4 0.000000 34.3 -32.4 0.87
509 49 1 0.000000 29.6 6.0 0.0
510 49 2 0.000000 30.3 7.2 0.0
511 49 3 0.000000 31.7 7.2 0.0
512 49 4 0.000000 32.7 7.2 0.0
513 49 5 0.000000 32.4 6.0 0.0
514 49 6 0.000000 32.9 6.0 0.87
515 49 6 0.000000 32.9 6.0 -0.87
516 50 1 0.000000 29.6 8.4 0.0
517 50 2 0.000000 30.3 9.6 0.0
518 50 3 0.000000 31.7 9.6 0.0
519 50 4 0.000000 32.7 9.6 0.0
520 50 5 0.000000 32.4 8.4 0.0
521 50 6 0.000000 32.9 8.4 0.87
522 50 6 0.000000 32.9 8.4 -0.87
523 51 1 0.000000 29.6 10.8 0.0
524 51 2 0.000000 30.3 12.0 0.0
525 51 3 0.000000 31.7 12.0 0.0
526 51 4 0.000000 32.7 12.0 0.0
527 51 5 0.000000 32.4 10.8 0.0
528 51 6 0.000000 32.9 10.8 0.87
529 51 6 0.000000 32.9 10.8 -0.87
530 52 1 0.000000 29.6 13.2 0.0
531 52 2 0.000000 30.3 14.4 0.0
532 52 3 0.000000 31.7 14.4 0.0
533 52 4 0.000000 32.7 14.4 0.0
534 52 5 0.000000 32.4 13.2 0.0
535 52 6 0.000000 32.9 13.2 0.87
536 52 6 0.000000 32.9 13.2 -0.87
537 53 1 0.000000 29.6 15.6 0.0
538 53 2 0.000000 30.3 16.8 0.0
539 53 3 0.000000 31.7 16.8 0.0
540 53 4 0.000000 32.7 16.8 0.0
541 53 5 0.000000 32.4 15.6 0.0
542 53 6 0.000000 32.9 15.6 0.87
543 53 6 0.000000 32.9 15.6 -0.87
544 54 1 0.000000 29.6 18.0 0.0
545 54 2 0.000000 30.3 19.2 0.0
546 54 3 0.000000 31.7 19.2 0.0
547 54 4 0.000000 32.7 19.2 0.0
548 54 5 0.000000 32.4 18.0 0.0
549 54 6 0.000000 32.9 18.0 0.87
550 54 6 0.000000 32.9 18.0 -0.87
551 55 1 0.000000 29.6 20.4 0.0
552 55 2 0.000000 30.3 21.6 0.0
553 55 3 0.000000 31.7 21.6 0.0
554 55 4 0.000000 32.7 21.6 0.0
555 55 5 0.000000 32.4 20.4 0.0
556 55 6 0.000000 32.9 20.4 0.87
557 55 6 0.000000 32.9 20.4 -0.87
558 56 1 0.000000 29.6 22.8 0.0
559 56 2 0.000000 30.3 24.0 0.0
560 56 3 0.000000 31.7 24.0 0.0
561 56 4 0.000000 32.7 24.0 0.0
562 56 5 0.000000 32.4 22.8 0.0
563 56 6 0.000000 32.9 22.8 0.87
564 56 6 0.000000 32.9 22.8 -0.87
565 57 1 0.000000 29.6 -37.2 0.0
566 57 2 0.000000 30.3 -36.0 0.0
567 57 3 0.000000 31.7 -36.0 0.0
568 57 4 0.000000 32.7 -36.0 0.0
569 57 5 0.000000 32.4 -37.2 0.0
570 57 6 0.000000 32.9 -37.2 0.87
571 57 6 0.000000 32.9 -37.2 -0.87
572 58 1 0.000000 29.6 -39.6 0.0
573 58 2 0.000000 30.3 -38.4 0.0
574 58 3 0.000000 31.7 -38.4 0.0
575 58 4 0.000000 32.7 -38.4 0.0
576 58 5 0.000000 32.4 -39.6 0.0
577 58 6 0.000000 32.9 -39.6 0.87
578 58 6 0.000000 32.9 -39.6 -0.87
579 59 1 0.000000 29.6 -42.0 0.0
580 59 2 0.000000 30.3 -40.8 0.0
581 59 3 0.000000 31.7 -40.8 0.0
582 59 4 0.000000 32.7 -40.8 0.0
583 59 5 0.000000 32.4 -42.0 0.0
584 59 6 0.000000 32.9 -42.0 0.87
585 59 6 0.000000 32.9 -42.0 -0.87
586 60 1 0.000000 29.6 -44.4 0.0
587 60 2 0.000000 30.3 -43.2 0.0
588 60 3 0.000000 31.7 -43.2 0.0
589 60 4 0.000000 32.7 -43.2 0.0
590 60 5 0.000000 32.4 -44.4 0.0
591 60 6 0.000000 32.9 -44.4 0.87
592 60 6 0.000000 32.9 -44.4 -0.87
593 61 1 0.000000 29.6 -46.8 0.0
594 61 2 0.000000 30.3 -45.6 0.0
595 61 3 0.000000 31.7 -45.6 0.0
596 61 4 0.000000 32.7 -45.6 0.0
597 61 5 0.000000 32.4 -46.8 0.0
598 61 6 0.000000 32.9 -46.8 0.87
599 61 6 0.000000 32.9 -46.8 -0.87
600 62 1 0.000000 29.6 -49.2 0.0
601 62 2 0.000000 30.3 -48.0 0.0
602 62 3 0.000000 31.7 -48.0 0.0
603 62 4 0.000000 32.7 -48.0 0.0
604 62 5 0.000000 32.4 -49.2 0.0
605 62 6 0.000000 32.9 -49.2 0.87
606 62 6 0.000000 32.9 -49.2 -0.87
607 63 1 0.000000 29.6 -51.6 0.0
608 63 2 0.000000 30.3 -50.4 0.0
609 63 3 0.000000 31.7 -50.4 0.0
610 63 4 0.000000 32.7 -50.4 0.0
611 63 5 0.000000 32.4 -51.6 0.0
612 63 6 0.000000 32.9 -51.6 0.87
613 63 6 0.000000 32.9 -51.6 -0.87
614 64 7 0.000000 30.3 -33.6 0.0
615 64 8 0.000000 31.7 -33.6 0.0
616 64 5 0.000000 32.4 -34.8 0.0
617 64 6 0.000000 32.9 -34.8 0.87
618 64 6 0.000000 32.9 -34.8 -0.87
619 66 7 0.000000 45.8 4.8 0.0
620 66 8 0.000000 47.2 4.8 0.0
621 66 9 0.000000 45.1 3.6 0.0
622 66 10 0.000000 47.9 3.6 0.0
623 66 14 0.000000 48.9 3.6 0.0
624 66 7 0.000000 45.8 2.4 0.0
625 66 8 0.000000 47.2 2.4 0.0
626 66 4 0.000000 44.1 1.2 0.0
627 66 11 0.000000 45.1 1.2 0.0
628 66 10 0.000000 47.9 1.2 0.0
629 66 12 0.000000 49.3 1.2 0.0
630 66 7 0.000000 45.8 0.0 0.0
631 66 3 0.000000 47.2 0.0 0.0
632 66 13 0.000000 48.2 0.0 0.0
633 66 9 0.000000 45.1 -1.2 0.0
634 66 5 0.000000 47.9 -1.2 0.0
635 66 14 0.000000 48.4 -1.2 0.87
636 66 14 0.000000 48.4 -1.2 -0.87
637 66 7 0.000000 45.8 -2.4 0.0
638 66 8 0.000000 47.2 -2.4 0.0
639 66 9 0.000000 45.1 -3.6 0.0
640 66 10 0.000000 47.9 -3.6 0.0
641 66 15 0.000000 49.3 -3.6 0.0
642 66 4 0.000000 49.8 -3.6 0.87
643 67 7 0.000000 45.8 -4.8 0.0
644 67 8 0.000000 47.2 -4.8 0.0
645 67 9 0.000000 45.1 -6.0 0.0
646 67 10 0.000000 47.9 -6.0 0.0
647 67 14 0.000000 48.9 -6.0 0.0
648 67 7 0.000000 45.8 -7.2 0.0
649 67 8 0.000000 47.2 -7.2 0.0
650 67 4 0.000000 44.1 -8.4 0.0
651 67 11 0.000000 45.1 -8.4 0.0
652 67 10 0.000000 47.9 -8.4 0.0
653 67 12 0.000000 49.3 -8.4 0.0
654 67 7 0.000000 45.8 -9.6 0.0
655 67 3 0.000000 47.2 -9.6 0.0
656 67 13 0.000000 48.2 -9.6 0.0
657 67 9 0.000000 45.1 -10.8 0.0
658 67 5 0.000000 47.9 -10.8 0.0
659 67 14 0.000000 48.4 -10.8 0.87
660 67 14 0.000000 48.4 -10.8 -0.87
661 67 7 0.000000 45.8 -12.0 0.0
662 67 8 0.000000 47.2 -12.0 0.0
663 67 9 0.000000 45.1 -13.2 0.0
664 67 10 0.000000 47.9 -13.2 0.0
665 67 15 0.000000 49.3 -13.2 0.0
666 67 4 0.000000 49.8 -13.2 0.87
667 68 7 0.000000 45.8 -14.4 0.0
668 68 8 0.000000 47.2 -14.4 0.0
669 68 9 0.000000 45.1 -15.6 0.0
670 68 10 0.000000 47.9 -15.6 0.0
671 68 14 0.000000 48.9 -15.6 0.0
672 68 7 0.000000 45.8 -16.8 0.0
673 68 8 0.000000 47.2 -16.8 0.0
674 68 4 0.000000 44.1 -18.0 0.0
675 68 11 0.000000 45.1 -18.0 0.0
676 68 10 0.000000 47.9 -18.0 0.0
677 68 12 0.000000 49.3 -18.0 0.0
678 68 7 0.000000 45.8 -19.2 0.0
679 68 3 0.000000 47.2 -19.2 0.0
680 68 13 0.000000 48.2 -19.2 0.0
681 68 9 0.000000 45.1 -20.4 0.0
682 68 5 0.000000 47.9 -20.4 0.0
683 68 14 0.000000 48.4 -20.4 0.87
684 68 14 0.000000 48.4 -20.4 -0.87
685 68 7 0.000000 45.8 -21.6 0.0
686 68 8 0.000000 47.2 -21.6 0.0
687 68 9 0.000000 45.1 -22.8 0.0
688 68 10 0.000000 47.9 -22.8 0.0
689 68 15 0.000000 49.3 -22.8 0.0
690 68 4 0.000000 49.8 -22.8 0.87
691 69 7 0.000000 45.8 -24.0 0.0
692 69 8 0.000000 47.2 -24.0 0.0
693 69 9 0.000000 45.1 -25.2 0.0
694 69 10 0.000000 47.9 -25.2 0.0
695 69 14 0.000000 48.9 -25.2 0.0
696 69 7 0.000000 45.8 -26.4 0.0
697 69 8 0.000000 47.2 -26.4 0.0
698 69 4 0.000000 44.1 -27.6 0.0
699 69 11 0.000000 45.1 -27.6 0.0
700 69 10 0.000000 47.9 -27.6 0.0
701 69 12 0.000000 49.3 -27.6 0.0
702 69 7 0.000000 45.8 -28.8 0.0
703 69 3 0.000000 47.2 -28.8 0.0
704 69 13 0.000000 48.2 -28.8 0.0
705 69 9 0.000000 45.1 -30.0 0.0
706 69 5 0.000000 47.9 -30.0 0.0
707 69 14 0.000000 48.4 -30.0 0.87
708 69 14 0.000000 48.4 -30.0 -0.87
709 69 7 0.000000 45.8 -31.2 0.0
710 69 8 0.000000 47.2 -31.2 0.0
711 69 9 0.000000 45.1 -32.4 0.0
712 69 10 0.000000 47.9 -32.4 0.0
713 69 15 0.000000 49.3 -32.4 0.0
714 69 4 0.000000 49.8 -32.4 0.87
715 70 1 0.000000 45.1 6.0 0.0
716 70 2 0.000000 45.8 7.2 0.0
717 70 3 0.000000 47.2 7.2 0.0
718 70 4 0.000000 48.2 7.2 0.0
719 70 5 0.000000 47.9 6.0 0.0
720 70 6 0.000000 48.4 6.0 0.87
721 70 6 0.000000 48.4 6.0 -0.87
722 71 1 0.000000 45.1 8.4 0.0
723 71 2 0.000000 45.8 9.6 0.0
724 71 3 0.000000 47.2 9.6 0.0
725 71 4 0.000000 48.2 9.6 0.0
726 71 5 0.000000 47.9 8.4 0.0
727 71 6 0.000000 48.4 8.4 0.87
728 71 6 0.000000 48.4 8.4 -0.87
729 72 1 0.000000 45.1 10.8 0.0
730 72 2 0.000000 45.8 12.0 0.0
731 72 3 0.000000 47.2 12.0 0.0
732 72 4 0.000000 48.2 12.0 0.0
733 72 5 0.000000 47.9 10.8 0.0
734 72 6 0.000000 48.4 10.8 0.87
735 72 6 0.000000 48.4 10.8 -0.87
736 73 1 0.000000 45.1 13.2 0.0
737 73 2 0.000000 45.8 14.4 0.0
738 73 3 0.000000 47.2 14.4 0.0
739 73 4 0.000000 48.2 14.4 0.0
740 73 5 0.000000 47.9 13.2 0.0
741 73 6 0.000000 48.4 13.2 0.87
742 73 6 0.000000 48.4 13.2 -0.87
743 74 1 0.000000 45.1 15.6 0.0
744 74 2 0.000000 45.8 16.8 0.0
745 74 3 0.000000 47.2 16.8 0.0
746 74 4 0.000000 48.2 16.8 0.0
747 74 5 0.000000 47.9 15.6 0.0
748 74 6 0.000000 48.4 15.6 0.87
749 74 6 0.000000 48.4 15.6 -0.87
750 75 1 0.000000 45.1 18.0 0.0
751 75 2 0.000000 45.8 19.2 0.0
752 75 3 0.000000 47.2 19.2 0.0
753 75 4 0.000000 48.2 19.2 0.0
754 75 5 0.000000 47.9 18.0 0.0
755 75 6 0.000000 48.4 18.0 0.87
756 75 6 0.000000 48.4 18.0 -0.87
757 76 1 0.000000 45.1 20.4 0.0
758 76 2 0.000000 45.8 21.6 0.0
759 76 3 0.000000 47.2 21.6 0.0
760 76 4 0.000000 48.2 21.6 0.0
761 76 5 0.000000 47.9 20.4 0.0
762 76 6 0.000000 48.4 20.4 0.87
763 76 6 0.000000 48.4 20.4 -0.87
764 77 1 0.000000 45.1 22.8 0.0
765 77 2 0.000000 45.8 24.0 0.0
766 77 3 0.000000 47.2 24.0 0.0
767 77 4 0.000000 48.2 24.0 0.0
768 77 5 0.000000 47.9 22.8 0.0
769 77 6 0.000000 48.4 22.8 0.87
770 77 6 0.000000 48.4 22.8 -0.87
771 78 1 0.000000 45.1 -37.2 0.0
772 78 2 0.000000 45.8 -36.0 0.0
773 78 3 0.000000 47.2 -36.0 0.0
774 78 4 0.000000 48.2 -36.0 0.0
775 78 5 0.000000 47.9 -37.2 0.0
776 78 6 0.000000 48.4 -37.2 0.87
777 78 6 0.000000 48.4 -37.2 -0.87
778 79 1 0.000000 45.1 -39.6 0.0
779 79 2 0.000000 45.8 -38.4 0.0
780 79 3 0.000000 47.2 -38.4 0.0
781 79 4 0.000000 48.2 -38.4 0.0
782 79 5 0.000000 47.9 -39.6 0.0
783 79 6 0.000000 48.4 -39.6 0.87
784 79 6 0.000000 48.4 -39.6 -0.87
785 80 1 0.000000 45.1 -42.0 0.0
786 80 2 0.000000 45.8 -40.8 0.0
787 80 3 0.000000 47.2 -40.8 0.0
788 80 4 0.000000 48.2 -40.8 0.0
789 80 5 0.000000 47.9 -42.0 0.0
790 80 6 0.000000 48.4 -42.0 0.87
791 80 6 0.000000 48.4 -42.0 -0.87
792 81 1 0.000000 45.1 -44.4 0.0
793 81 2 0.000000 45.8 -43.2 0.0
794 81 3 0.000000 47.2 -43.2 0.0
795 81 4 0.000000 48.2 -43.2 0.0
796 81 5 0.000000 47.9 -44.4 0.0
797 81 6 0.000000 48.4 -44.4 0.87
798 81 6 0.000000 48.4 -44.4 -0.87
799 82 1 0.000000 45.1 -46.8 0.0
800 82 2 0.000000 45.8 -45.6 0.0
801 82 3 0.000000 47.2 -45.6 0.0
802 82 4 0.000000 48.2 -45.6 0.0
803 82 5 0.000000 47.9 -46.8 0.0
804 82 6 0.000000 48.4 -46.8 0.87
805 82 6 0.000000 48.4 -46.8 -0.87
806 83 1 0.000000 45.1 -49.2 0.0
807 83 2 0.000000 45.8 -48.0 0.0
808 83 3 0.000000 47.2 -48.0 0.0
809 83 4 0.000000 48.2 -48.0 0.0
810 83 5 0.000000 47.9 -49.2 0.0
811 83 6 0.000000 48.4 -49.2 0.87
812 83 6 0.000000 48.4 -49.2 -0.87
813 84 1 0.000000 45.1 -51.6 0.0
814 84 2 0.000000 45.8 -50.4 0.0
815 84 3 0.000000 47.2 -50.4 0.0
816 84 4 0.000000 48.2 -50.4 0.0
817 84 5 0.000000 47.9 -51.6 0.0
818 84 6 0.000000 48.4 -51.6 0.87
819 84 6 0.000000 48.4 -51.6 -0.87
820 85 7 0.000000 45.8 -33.6 0.0
821 85 8 0.000000 47.2 -33.6 0.0
822 85 5 0.000000 47.9 -34.8 0.0
823 85 6 0.000000 48.4 -34.8 0.87
824 85 6 0.000000 48.4 -34.8 -0.87
825 87 7 0.000000 61.3 4.8 0.0
826 87 8 0.000000 62.7 4.8 0.0
827 87 9 0.000000 60.6 3.6 0.0
828 87 10 0.000000 63.4 3.6 0.0
829 87 14 0.000000 64.4 3.6 0.0
830 87 7 0.000000 61.3 2.4 0.0
831 87 8 0.000000 62.7 2.4 0.0
832 87 4 0.000000 59.6 1.2 0.0
833 87 11 0.000000 60.6 1.2 0.0
834 87 10 0.000000 63.4 1.2 0.0
835 87 12 0.000000 64.8 1.2 0.0
836 87 7 0.000000 61.3 0.0 0.0
837 87 3 0.000000 62.7 0.0 0.0
838 87 13 0.000000 63.7 0.0 0.0
839 87 9 0.000000 60.6 -1.2 0.0
840 87 5 0.000000 63.4 -1.2 0.0
841 87 14 0.000000 63.9 -1.2 0.87
842 87 14 0.000000 63.9 -1.2 -0.87
843 87 7 0.000000 61.3 -2.4 0.0
844 87 8 0.000000 62.7 -2.4 0.0
845 87 9 0.000000 60.6 -3.6 0.0
846 87 10 0.000000 63.4 -3.6 0.0
847 87 15 0.000000 64.8 -3.6 0.0
848 87 4 0.000000 65.3 -3.6 0.87
849 88 7 0.000000 61.3 -4.8 0.0
850 88 8 0.000000 62.7 -4.8 0.0
851 88 9 0.000000 60.6 -6.0 0.0
852 88 10 0.000000 63.4 -6.0 0.0
853 88 14 0.000000 64.4 -6.0 0.0
854 88 7 0.000000 61.3 -7.2 0.0
855 88 8 0.000000 62.7 -7.2 0.0
856 88 4 0.000000 59.6 -8.4 0.0
857 88 11 0.000000 60.6 -8.4 0.0
858 88 10 0.000000 63.4 -8.4 0.0
859 88 12 0.000000 64.8 -8.4 0.0
860 88 7 0.000000 61.3 -9.6 0.0
861 88 3 0.000000 62.7 -9.6 0.0
862 88 13 0.000000 63.7 -9.6 0.0
863 88 9 0.000000 60.6 -10.8 0.0
864 88 5 0.000000 63.4 -10.8 0.0
865 88 14 0.000000 63.9 -10.8 0.87
866 88 14 0.000000 63.9 -10.8 -0.87
867 88 7 0.000000 61.3 -12.0 0.0
868 88 8 0.000000 62.7 -12.0 0.0
869 88 9 0.000000 60.6 -13.2 0.0
870 88 10 0.000000 63.4 -13.2 0.0
871 88 15 0.000000 64.8 -13.2 0.0
872 88 4 0.000000 65.3 -13.2 0.87
873 89 7 0.000000 61.3 -14.4 0.0
874 89 8 0.000000 62.7 -14.4 0.0
875 89 9 0.000000 60.6 -15.6 0.0
876 89 10 0.000000 63.4 -15.6 0.0
877 89 14 0.000000 64.4 -15.6 0.0
878 89 7 0.000000 61.3 -16.8 0.0
879 89 8 0.000000 62.7 -16.8 0.0
880 89 4 0.000000 59.6 -18.0 0.0
881 89 11 0.000000 60.6 -18.0 0.0
882 89 10 0.000000 63.4 -18.0 0.0
883 89 12 0.000000 64.8 -18.0 0.0
884 89 7 0.000000 61.3 -19.2 0.0
885 89 3 0.000000 62.7 -19.2 0.0
886 89 13 0.000000 63.7 -19.2 0.0
887 89 9 0.000000 60.6 -20.4 0.0
888 89 5 0.000000 63.4 -20.4 0.0
889 89 14 0.000000 63.9 -20.4 0.87
890 89 14 0.000000 63.9 -20.4 -0.87
891 89 7 0.000000 61.3 -21.6 0.0
892 89 8 0.000000 62.7 -21.6 0.0
893 89 9 0.000000 60.6 -22.8 0.0
894 89 10 0.000000 63.4 -22.8 0.0
895 89 15 0.000000 64.8 -22.8 0.0
896 89 4 0.000000 65.3 -22.8 0.87
897 90 7 0.000000 61.3 -24.0 0.0
898 90 8 0.000000 62.7 -24.0 0.0
899 90 9 0.000000 60.6 -25.2 0.0
900 90 10 0.000000 63.4 -25.2 0.0
901 90 14 0.000000 64.4 -25.2 0.0
902 90 7 0.000000 61.3 -26.4 0.0
903 90 8 0.000000 62.7 -26.4 0.0
904 90 4 0.000000 59.6 -27.6 0.0
905 90 11 0.000000 60.6 -27.6 0.0