LAMMPS data file via write_data, version 11 Aug 2017, timestep = 57569

7824 atoms
18 atom types
9479 bonds
18 bond types
18836 angles
39 angle types
28936 dihedrals
62 dihedral types
6388 impropers
9 improper types

1.2309072454576960e+001 7.3690929545409858e+001 xlo xhi
-5.5193955638940558e+001 2.7593956638940561e+001 ylo yhi
1.0230136827917162e+000 1.2776986317207239e+001 zlo zhi

Masses

1 14.0067
2 12.011
3 14.0067
4 15.9994
5 1.008
6 1.008
7 15.9994
8 12.011
9 12.011
10 1.008
11 12.011
12 1.008
13 12.011
14 12.011
15 14.0067
16 15.9994
17 14.0067
18 12.011


Bond Coeffs # harmonic

1 1365.78 1.155
2 398.26 1.093
3 1024.04 1.2
4 500.95 1.374
5 362.01 1.1
6 362.01 1.1
7 509.51 1.359
8 591.76 0.965
9 517.41 1.528
10 497.83 1.459
11 362.01 1.1
12 705.27 1.398
13 362.01 1.1
14 705.27 1.398
15 634.85 1.335
16 398.26 1.093
17 634.85 1.335
18 867.4 1.238

Angle Coeffs # harmonic

1 50 180
2 50 104.51
3 50 109.471
4 50 109.471
5 50 109.471
6 50 120
7 50 120
8 50 120
9 50 120
10 50 120
11 50 120
12 50 120
13 50 120
14 50 109.471
15 50 109.471
16 50 120
17 50 109.471
18 50 109.471
19 50 109.471
20 50 120
21 50 109.471
22 50 109.471
23 50 120
24 50 109.471
25 50 109.471
26 50 109.471
27 50 120
28 50 106.7
29 50 109.471
30 50 109.471
31 50 109.471
32 50 120
33 50 109.471
34 50 109.471
35 50 106.7
36 50 120
37 50 120
38 50 120
39 50 120

Dihedral Coeffs # harmonic

1 0 1 1
2 0 1 1
3 1 1 3
4 1 1 3
5 1 1 3
6 0.5 -1 6
7 12.5 -1 2
8 12.5 -1 2
9 0.5 -1 6
10 0.5 -1 6
11 0.5 -1 6
12 12.5 -1 2
13 12.5 -1 2
14 1 1 3
15 1 1 3
16 1 1 3
17 1 1 3
18 12.5 -1 2
19 12.5 -1 2
20 12.5 -1 2
21 0.5 -1 6
22 0.5 -1 6
23 12.5 -1 2
24 12.5 -1 2
25 12.5 -1 2
26 1 1 3
27 1 1 3
28 1 1 3
29 12.5 -1 2
30 12.5 -1 2
31 0.5 -1 6
32 0.5 -1 6
33 12.5 -1 2
34 1 1 3
35 0.5 -1 6
36 0.5 -1 6
37 1 1 3
38 1 1 3
39 1 1 3
40 1 1 3
41 1 1 3
42 1 1 3
43 1 1 3
44 0.5 -1 6
45 0.5 -1 6
46 0.5 -1 6
47 1 1 3
48 0.5 -1 6
49 0.5 -1 6
50 1 1 3
51 1 1 3
52 1 -1 2
53 0.5 -1 6
54 0.5 -1 6
55 0.5 -1 6
56 12.5 -1 2
57 12.5 -1 2
58 12.5 -1 2
59 12.5 -1 2
60 12.5 -1 2
61 12.5 -1 2
62 12.5 -1 2

Improper Coeffs # umbrella

1 20 0
2 20 0
3 20 0
4 20 0
5 20 0
6 20 0
7 20 0
8 20 0
9 20 0

Atoms # full

37 2 9 8.4900000000000003e-002 1.2358666489722745e+001 -4.1655122381368088e+001 2.8986836290456433e+000 0 -7 -5
50 3 14 4.0000000000000001e-002 1.2412861923829489e+001 -4.5852344324805728e+001 3.9305504242034157e+000 0 -7 -5
5411 523 14 4.0000000000000001e-002 3.4682605822605979e+001 -5.0720050101562478e+001 2.1240479891707307e+000 0 7 4
4956 481 13 2.0000000000000000e-002 1.6827801399108335e+001 -1.5500123219061557e+001 4.4502178824863323e+000 0 -7 -4
4957 481 9 8.4900000000000003e-002 1.6249824924427610e+001 -1.5428354393879665e+001 3.1766784891124478e+000 0 -7 -4
475 43 15 -2.3669999999999999e-001 3.5503975571153987e+001 -5.0290957284384540e+001 9.1388546079853796e+000 0 6 2
7798 756 9 8.4900000000000003e-002 2.5420107424020674e+001 -5.4633827470767223e+001 5.3353110064669593e+000 0 -1 0
1503 143 9 8.4900000000000003e-002 2.4897756820833944e+001 -5.4531657458253989e+001 8.5914454896130614e+000 0 0 -1
11749 1141 14 4.0000000000000001e-002 4.2698878629278056e+001 -4.9589476392061094e+001 8.9814913465640753e+000 0 9 6
10071 977 9 8.4900000000000003e-002 1.2762457567507086e+001 -4.5228284112739779e+001 1.2295537169291780e+001 0 -7 -5
7920 764 14 4.0000000000000001e-002 3.9111120823854591e+001 -5.1349510437671043e+001 4.3008372831925321e+000 0 9 6
109 6 12 3.2989999999999998e-002 1.2576014655932077e+001 -2.2250716448761665e+001 1.7881198388607373e+000 0 -7 -5
2342 224 13 -4.2830000000000000e-002 1.2310374811527936e+001 -1.7698883974224259e+001 3.4071078364911744e+000 1 -9 -5
1502 143 13 2.0000000000000000e-002 2.3921954289132216e+001 -5.4533280496776527e+001 9.5818818000960206e+000 0 0 -1
3870 374 9 8.4900000000000003e-002 2.1245701351713002e+001 -1.4944318951067103e+001 1.4189202773568927e+000 0 -8 -4
7795 755 12 3.2989999999999998e-002 2.5350585852435060e+001 -5.2748072286080358e+001 4.3413745919202054e+000 0 -1 0
1499 143 3 -3.2719999999999999e-001 2.3206320771330262e+001 -5.3298405184377572e+001 9.7691553496786163e+000 0 0 -1
7793 755 11 -4.1939999999999998e-003 2.5440506787692403e+001 -5.3086934181141956e+001 5.3760201137958887e+000 0 -1 0
2456 238 9 8.4900000000000003e-002 1.2395203859841244e+001 -4.1459929650871914e+001 7.1102156586761724e+000 1 -9 -5
6 1 13 2.0000000000000000e-002 1.2429667196862880e+001 -2.9345182582004185e+001 4.0555836927483409e+000 0 -7 -5
6736 651 12 3.2989999999999998e-002 3.5115432553067393e+001 -5.0700299849081247e+001 7.2045470901241169e+000 0 8 4
8685 842 3 -3.2719999999999999e-001 2.2869691258577618e+001 -5.4336123838078876e+001 3.2662039747694096e+000 0 -4 -3
216 21 18 -4.2830000000000000e-002 2.2248262641529330e+001 -1.5004241554369003e+001 7.3454452070035403e+000 0 -4 -4
7791 755 9 8.4900000000000003e-002 2.4489644004330060e+001 -5.2170655683539600e+001 6.1499275193535219e+000 0 -1 0
10173 984 14 4.0000000000000001e-002 2.1304110749398181e+001 -5.5100319294082773e+001 7.8564310963235373e+000 0 -4 -3
3983 383 15 -2.3669999999999999e-001 2.5362819293791144e+001 -5.3925734833320490e+001 1.8795506241363769e+000 0 0 0
8686 842 18 -4.2830000000000000e-002 2.2031740183649468e+001 -5.4081227419685270e+001 5.8046637977655031e+000 0 -4 -3
10172 984 13 2.0000000000000000e-002 2.0696834424273337e+001 -5.4970689803148431e+001 9.1134074766366950e+000 0 -4 -3
1496 143 13 2.0000000000000000e-002 2.3794610712375366e+001 -5.2052575150958937e+001 9.8145123611397516e+000 0 0 -1
8682 842 13 2.0000000000000000e-002 2.2672272781512522e+001 -5.3071327174800942e+001 3.8038922944280085e+000 0 -4 -3
7291 704 3 -3.2719999999999999e-001 1.2409728793212562e+001 -4.1138165627133311e+001 9.4500758517944519e+000 1 -7 -5
10170 984 18 -4.2830000000000000e-002 2.1547577946693913e+001 -5.3940772875946024e+001 7.1079733452409330e+000 0 -4 -3
3981 383 13 2.0000000000000000e-002 2.5983450460226408e+001 -5.2709233929496293e+001 2.0906453088430572e+000 0 0 0
1497 143 14 4.0000000000000001e-002 2.5126714806974874e+001 -5.2031421072490026e+001 9.4250411894400301e+000 0 0 -1
1493 143 15 -2.3669999999999999e-001 2.3210948552163323e+001 -5.0833195253217625e+001 1.0141186453404732e+001 0 0 -1
1491 143 13 2.0000000000000000e-002 2.3706410720815924e+001 -4.9528620081051500e+001 1.0165771919385350e+001 0 0 -1
7786 754 13 -4.1939999999999998e-003 2.5004233810306445e+001 -5.0794208037108888e+001 6.5763146334919371e+000 0 -1 0
7788 754 12 3.2989999999999998e-002 2.4202077166666442e+001 -5.1078912541797884e+001 7.2758969460929732e+000 0 -1 0
1492 143 14 4.0000000000000001e-002 2.5088400050267332e+001 -4.9503537125407490e+001 9.9660244366701214e+000 0 0 -1
7787 754 12 3.2989999999999998e-002 2.4710048832740547e+001 -5.0471686795109235e+001 5.5666530281799238e+000 0 -1 0
117 7 12 3.2989999999999998e-002 1.2351016777385041e+001 -1.8545575942355406e+001 1.1499520660164944e+000 0 -7 -5
8683 842 14 4.0000000000000001e-002 2.2238795741501413e+001 -5.2867606899437469e+001 5.1122764615886753e+000 0 -4 -3
10169 984 15 -2.3669999999999999e-001 2.0393763484325973e+001 -5.3750641535835058e+001 9.5962593077134066e+000 0 -4 -3
26 2 14 4.0000000000000001e-002 1.2316306044525900e+001 -3.6743607193113078e+001 2.5369891315882649e+000 0 -7 -5
3014 289 12 3.2989999999999998e-002 3.8163194649690503e+001 -5.1107920969562350e+001 6.5886475026653040e+000 0 7 4
9212 892 9 8.4900000000000003e-002 4.1421387431897159e+001 -5.1647018720707372e+001 5.4038107876835637e+000 0 10 4
363 33 13 -4.1939999999999998e-003 1.9053769005446320e+001 -5.5187110921991341e+001 4.8313586381212419e+000 0 -4 -4
4960 481 13 -4.2830000000000000e-002 1.5940862868976263e+001 -1.6592042682524522e+001 2.4909526207186867e+000 0 -7 -4
10434 1010 9 8.4900000000000003e-002 3.1154115060282546e+001 -5.4322159565740918e+001 4.7837502442850575e+000 0 6 3
10628 1028 13 -4.1939999999999998e-003 3.8292551462537205e+001 -5.1779684338928391e+001 1.1374245791626958e+001 0 10 6
759 71 9 8.4900000000000003e-002 4.2683698974279729e+001 -2.0575081836766941e+001 1.2180873234193253e+001 0 9 5
8031 780 14 4.0000000000000001e-002 3.8763525184913654e+001 -5.3898581009286914e+001 4.5150493652105386e+000 0 9 6
365 33 12 3.2989999999999998e-002 1.8369805135198888e+001 -5.4677285114845482e+001 4.1424052964796569e+000 0 -4 -4
3977 383 15 -2.3669999999999999e-001 2.5420774737218252e+001 -5.1449941499052983e+001 2.2070027419092861e+000 0 0 0
10167 984 13 2.0000000000000000e-002 2.0680492635424272e+001 -5.2612831896117896e+001 8.9249042473864950e+000 0 -4 -3
8679 842 15 -2.3669999999999999e-001 2.2828698222861245e+001 -5.1864187879750432e+001 3.1931562836634089e+000 0 -4 -3
10168 984 14 4.0000000000000001e-002 2.1246336471504943e+001 -5.2674490003231213e+001 7.6457341387699733e+000 0 -4 -3
7781 753 12 3.2989999999999998e-002 2.2827279027500410e+001 -4.9372095765643166e+001 7.8007713534617045e+000 0 -1 0
3974 383 13 2.0000000000000000e-002 2.6053209623710110e+001 -5.0226101497105596e+001 2.3262287184149559e+000 0 0 0
7784 754 9 8.4900000000000003e-002 2.4410114320589891e+001 -4.9648513612010674e+001 7.3757317776900759e+000 0 -1 0
1487 142 15 -2.3669999999999999e-001 2.3152569718409687e+001 -4.8205348471143118e+001 1.0451824167231621e+001 0 0 -1
34 2 13 -4.2830000000000000e-002 1.2458246132621058e+001 -4.0524387095839742e+001 2.0964388677951158e+000 0 -7 -5
6360 616 12 3.2989999999999998e-002 1.6857144207952054e+001 -5.4558830614838371e+001 7.0038328302137183e+000 0 -8 -4
2451 237 11 -4.1939999999999998e-003 1.2342335533829287e+001 -3.9990460717445927e+001 6.5189548554629919e+000 1 -9 -5
3872 374 11 -4.1939999999999998e-003 2.1994303323917642e+001 -1.5761624309120457e+001 2.4713421094775998e+000 0 -8 -4
10209 987 13 -4.1939999999999998e-003 2.4468517818290049e+001 -1.5659645534075899e+001 1.2243263030067414e+001 0 -4 -3
10073 977 11 -4.1939999999999998e-003 1.2329415275064854e+001 -4.6780960086961009e+001 1.2510548540496760e+001 0 -7 -5
6363 617 9 8.4900000000000003e-002 1.8142932659283510e+001 -5.4735207336235852e+001 7.1730352950275167e+000 0 -8 -4
7369 713 12 3.2989999999999998e-002 1.2485289575694631e+001 -5.1672251385723094e+001 8.6269955849287410e+000 1 -7 -5
7485 723 15 -2.3669999999999999e-001 1.5021708076647439e+001 -5.4602585123415999e+001 2.4045564492982887e+000 0 -7 -4
361 33 9 8.4900000000000003e-002 1.9336300202435535e+001 -5.3483594982217312e+001 4.9551648906547854e+000 0 -4 -4
5654 544 14 4.0000000000000001e-002 3.9569907145397366e+001 -5.2606068741440318e+001 9.6805299709798902e+000 0 9 6
7779 753 13 -4.1939999999999998e-003 2.3254189722247560e+001 -4.8744868005883589e+001 7.0310168006047142e+000 0 -1 0
8674 841 13 -4.2830000000000000e-002 2.3015158560770214e+001 -4.9056735588856824e+001 5.6565808564180973e+000 0 -4 -3
8678 842 14 4.0000000000000001e-002 2.2606417812017057e+001 -5.0360653056430984e+001 5.0942562948490560e+000 0 -4 -3
8680 842 18 -4.2830000000000000e-002 2.2083065561579279e+001 -5.1560821941176172e+001 5.6936865961812924e+000 0 -4 -3
10163 983 15 -2.3669999999999999e-001 2.0481632036258958e+001 -5.1357870947375595e+001 9.4823503537266376e+000 0 -4 -3
410 40 11 -4.1939999999999998e-003 1.9546695780419235e+001 -5.1920128917387721e+001 4.3023513275396388e+000 0 -4 -4
8677 842 13 2.0000000000000000e-002 2.2823998104890915e+001 -5.0600631101690404e+001 3.7300581937133881e+000 0 -4 -3
10164 983 18 -4.2830000000000000e-002 2.1448295702074581e+001 -5.1478422250500877e+001 6.9393384174770771e+000 0 -4 -3
411 40 12 3.2989999999999998e-002 2.0254227857638512e+001 -5.2137867807352698e+001 3.4930034709860389e+000 0 -4 -4
8673 841 15 -2.3669999999999999e-001 2.3010001263858705e+001 -4.9458477608042955e+001 2.9821891654353418e+000 0 -4 -3
3971 383 3 -3.2719999999999999e-001 2.5457514027869429e+001 -4.8923723277795190e+001 2.3860378667856175e+000 0 0 0
1481 142 15 -2.3669999999999999e-001 2.3364160921093326e+001 -4.5704385911909213e+001 1.0943324509144425e+001 0 0 -1
7780 753 12 3.2989999999999998e-002 2.3459877899920830e+001 -4.8094019818296282e+001 7.8916913989323518e+000 0 -1 0
1486 142 14 4.0000000000000001e-002 2.5112085651621655e+001 -4.6871224946461872e+001 1.0204004910014326e+001 0 0 -1
1485 142 13 2.0000000000000000e-002 2.3744387302974651e+001 -4.6940324962482620e+001 1.0450172243141129e+001 0 0 -1
7777 753 9 8.4900000000000003e-002 2.3853955473064765e+001 -4.7317487487804428e+001 7.3509751582438465e+000 0 -1 0
11744 1141 14 4.0000000000000001e-002 4.2765952123196143e+001 -4.7331349156073024e+001 8.2993541961436730e+000 0 9 6
7484 723 14 4.0000000000000001e-002 1.6047626834124305e+001 -5.4365915028419103e+001 4.6673627007562697e+000 0 -7 -4
6359 616 12 3.2989999999999998e-002 1.6759799867913259e+001 -5.3074134921774942e+001 7.5443041112938420e+000 0 -8 -4
102 5 12 3.2989999999999998e-002 1.2753231272453155e+001 -2.5282731185119474e+001 3.0984089385637765e+000 0 -7 -5
7483 723 13 2.0000000000000000e-002 1.5535529663570596e+001 -5.3839613239156030e+001 3.4311659726502950e+000 0 -7 -4
9058 879 12 3.2989999999999998e-002 3.2372062396649874e+001 -1.5514672685093167e+001 7.8589678745016389e+000 0 0 0
11733 1139 9 8.4900000000000003e-002 3.2362010711019828e+001 -5.4281931123687428e+001 7.3267678698847538e+000 0 5 3
1576 150 9 8.4900000000000003e-002 2.7843540154345657e+001 -1.4866244589387847e+001 1.1039811013164375e+001 0 0 -1
644 62 14 4.0000000000000001e-002 4.1568935348041848e+001 -4.8943991112677580e+001 1.1415204313850932e+001 0 9 5
6214 602 18 -4.2830000000000000e-002 2.1982941119890498e+001 -1.5243286888934136e+001 8.6804999923495973e+000 0 -8 -4
6358 616 13 -4.1939999999999998e-003 1.7230259101200090e+001 -5.3574365190560385e+001 6.7050412268476505e+000 0 -8 -4
3968 383 13 2.0000000000000000e-002 2.6139183820613894e+001 -4.7734562672915899e+001 2.2252284196858083e+000 0 0 0
10161 983 13 2.0000000000000000e-002 2.0697396386884414e+001 -5.0199290919898445e+001 8.8386706146686773e+000 0 -4 -3
6356 616 9 8.4900000000000003e-002 1.8052183112948793e+001 -5.2509882945111428e+001 7.4628825093982734e+000 0 -8 -4
412 40 12 3.2989999999999998e-002 1.8571614687081897e+001 -5.1854977227292338e+001 3.8134309422896022e+000 0 -4 -4
2592 248 9 8.4900000000000003e-002 2.2691260457098622e+001 -5.4889390053227949e+001 1.2541405718407592e+001 0 -7 -5
7480 723 13 -4.2830000000000000e-002 1.6565435431776628e+001 -5.3268866305290828e+001 5.5045099453013995e+000 0 -7 -4
655 62 9 8.4900000000000003e-002 4.1552820853774556e+001 -5.3858100289528714e+001 1.2389423941592746e+001 0 9 7
7479 723 15 -2.3669999999999999e-001 1.5524655155709766e+001 -5.2495109391497799e+001 3.2081112568486683e+000 0 -7 -4
10162 983 14 4.0000000000000001e-002 2.1015016666964716e+001 -5.0244356917941460e+001 7.4778580243181478e+000 0 -4 -3
409 40 14 4.0000000000000001e-002 1.9842882587996549e+001 -5.0222842555264783e+001 4.5563277454638271e+000 0 -4 -4
7826 760 13 -4.1939999999999998e-003 2.4131187787375602e+001 -4.6024486867109609e+001 6.5350037723444059e+000 0 -1 0
3965 383 15 -2.3669999999999999e-001 2.5602529352963554e+001 -4.6465154358260840e+001 2.1458687850455203e+000 0 0 0
8672 841 14 4.0000000000000001e-002 2.3298807953346447e+001 -4.7947291461376814e+001 4.8431607656373412e+000 0 -4 -3
8671 841 13 2.0000000000000000e-002 2.3141602600821905e+001 -4.8209276057219512e+001 3.4672649898896850e+000 0 -4 -3
10157 983 15 -2.3669999999999999e-001 2.0649564062451134e+001 -4.9020271027476596e+001 9.4984084728514553e+000 0 -4 -3
7828 760 12 3.2989999999999998e-002 2.4553052370878039e+001 -4.6210847420152959e+001 7.5267007003397284e+000 0 -1 0
482 43 18 -4.2830000000000000e-002 3.5129385378915359e+001 -5.2327515776416234e+001 1.2209641368955094e+001 0 6 2
122 8 13 -4.1939999999999998e-003 1.2352288801307191e+001 -1.5497493577688203e+001 1.7955104093187968e+000 0 -7 -5
11524 1118 12 3.2989999999999998e-002 3.2014182231828876e+001 -1.8225402474602021e+001 9.9692754740234726e+000 0 0 0
5650 544 13 -4.2830000000000000e-002 3.9046286769382903e+001 -5.1379566904360452e+001 1.0265755613109960e+001 0 9 6
6353 615 12 3.2989999999999998e-002 1.6872231171010572e+001 -5.1266677777692323e+001 7.5722907559219657e+000 0 -8 -4
7476 723 13 2.0000000000000000e-002 1.5997472697417116e+001 -5.1455048745323076e+001 3.9550620738782643e+000 0 -7 -4
2601 249 13 -4.1939999999999998e-003 2.1781697050108704e+001 -5.3626533093973848e+001 1.2463100708758496e+001 0 -7 -5
11150 1082 14 4.0000000000000001e-002 1.4007658771969112e+001 -5.5043469823401750e+001 6.6047046959421865e+000 0 -7 -4
5474 528 1 -1.9810000000000000e-001 3.0071358110158055e+001 -1.4238033859468793e+001 3.6064643567952865e+000 0 3 1
5655 544 15 -2.3669999999999999e-001 4.0915379336961578e+001 -5.3336642538265771e+001 7.9510877897840633e+000 0 9 6
3711 361 15 -2.3669999999999999e-001 1.7899401490709820e+001 -5.4762751424192089e+001 1.1826550063533146e+000 0 -7 -4
11149 1082 13 2.0000000000000000e-002 1.4551253388183364e+001 -5.5030662652839993e+001 7.9049485087195741e+000 0 -7 -4
7477 723 9 8.4900000000000003e-002 1.6552712840721174e+001 -5.1830385165324707e+001 5.1748833366756610e+000 0 -7 -4
3712 361 13 -4.2830000000000000e-002 2.0465042278831035e+001 -5.4119780267070162e+001 1.2585133663658134e+001 0 -7 -5
2602 249 12 3.2989999999999998e-002 2.1691296055887417e+001 -5.3404065940007790e+001 1.1398547690200623e+001 0 -7 -5
2603 249 12 3.2989999999999998e-002 2.2878738899190957e+001 -5.3735004494935005e+001 1.2439975500359996e+001 0 -7 -5
8668 841 13 -4.2830000000000000e-002 2.3714257541736970e+001 -4.6656997080198380e+001 5.3135937303560921e+000 0 -4 -3
3964 383 14 4.0000000000000001e-002 2.7605388257916715e+001 -4.5286473035661864e+001 1.8975156644141165e+000 0 0 0
300 24 18 -4.2830000000000000e-002 2.0260604032765862e+001 -4.9028436102458194e+001 5.4129116996476565e+000 0 -4 -4
8667 841 15 -2.3669999999999999e-001 2.3147176768529377e+001 -4.7200275960394883e+001 2.5868318022180485e+000 0 -4 -3
408 40 13 2.0000000000000000e-002 1.9448935791304962e+001 -4.9569543132976449e+001 3.3611076259268717e+000 0 -4 -4
3963 383 13 2.0000000000000000e-002 2.6223558196848359e+001 -4.5244814923559765e+001 1.9985823037606512e+000 0 0 0
10158 983 18 -4.1939999999999998e-003 2.0687864310638453e+001 -4.9036696792714046e+001 6.7872777779503473e+000 0 -4 -3
1479 142 9 8.4900000000000003e-002 2.4820060303307322e+001 -4.4630393481264704e+001 9.6371539660883805e+000 0 0 -1
1478 142 13 2.0000000000000000e-002 2.4018889610719643e+001 -4.4507232374037642e+001 1.0746984881245019e+001 0 0 -1
3008 288 12 3.2989999999999998e-002 3.7406409372493229e+001 -5.3705825389233098e+001 8.6789308643720631e+000 0 7 4
7827 760 12 3.2989999999999998e-002 2.3412131918096986e+001 -4.5260684803590877e+001 6.8374794032695956e+000 0 -1 0
6352 615 12 3.2989999999999998e-002 1.8427532863244938e+001 -5.0829267169519674e+001 7.9007744678462100e+000 0 -8 -4
11146 1081 18 -4.2830000000000000e-002 1.3616075004565181e+001 -5.3927009991839263e+001 5.9216376374757136e+000 0 -7 -4
7474 723 13 -4.2830000000000000e-002 1.7130660464273724e+001 -5.0676439004023564e+001 5.8558461381499622e+000 0 -7 -4
70 3 18 -4.2830000000000000e-002 1.2983433047008859e+001 -5.4039819959184676e+001 4.6703691568054051e+000 0 -7 -5
6351 615 13 -4.1939999999999998e-003 1.7787265161418709e+001 -5.1034651369149103e+001 7.0391267666179651e+000 0 -8 -4
1367 129 12 3.2989999999999998e-002 1.7941555224268015e+001 -5.4420888805242100e+001 1.0859962502960748e+001 0 -6 -5
1365 129 13 -4.1939999999999998e-003 1.6946916850547076e+001 -5.4451838358694737e+001 1.0419264644034001e+001 0 -6 -5
5103 493 12 3.2989999999999998e-002 1.5810306381955947e+001 -5.4531025941676702e+001 1.2237620333495169e+001 0 -7 -5
1366 129 12 3.2989999999999998e-002 1.6814041647818748e+001 -5.4492235922187291e+001 9.3410290478827775e+000 0 -6 -5
3709 361 13 2.0000000000000000e-002 1.8289870683791072e+001 -5.3467168977908081e+001 1.0604673387514363e+000 0 -7 -4
5101 493 13 -4.1939999999999998e-003 1.5765474190260464e+001 -5.4418633359939548e+001 1.1162328304675505e+001 0 -7 -5
5102 493 12 3.2989999999999998e-002 1.4777911835064204e+001 -5.4342843125619332e+001 1.0698563838632417e+001 0 -7 -5
3710 361 14 4.0000000000000001e-002 1.9588546484318073e+001 -5.2969360689648951e+001 1.2574167538814283e+001 0 -7 -5
10154 983 13 2.0000000000000000e-002 2.0953561616602549e+001 -4.7831223587157240e+001 8.9354572645634178e+000 0 -4 -3
299 24 15 -2.3669999999999999e-001 1.9403189011095453e+001 -4.8205736187807716e+001 3.0190562361883577e+000 0 -4 -4
10155 983 9 8.4900000000000003e-002 2.0972963049899853e+001 -4.7827073071052737e+001 7.5326571785680505e+000 0 -4 -5
3959 382 15 -2.3669999999999999e-001 2.5672503852226175e+001 -4.3935873107708161e+001 1.9856309075408896e+000 0 0 0
9215 892 12 3.2989999999999998e-002 4.1738989581840478e+001 -5.2757213069082653e+001 5.6406776457002783e+000 0 10 6
1500 143 13 -4.2830000000000000e-002 2.5591465591972771e+001 -5.3243545930144684e+001 8.7446839073598888e+000 0 0 -1
1488 142 18 -4.2830000000000000e-002 2.5664750859128254e+001 -4.8181465423596116e+001 1.0089032832722054e+001 0 0 -1
1494 143 18 -4.2830000000000000e-002 2.5776879707742623e+001 -5.0752816905617074e+001 9.6864014439681689e+000 0 0 -1
1482 142 18 -4.1939999999999998e-003 2.5784444811770037e+001 -4.5576289434944634e+001 1.0168349387653588e+001 0 0 -1
68 3 14 4.0000000000000001e-002 1.2584075656443639e+001 -5.2880665442407100e+001 4.0324990214383796e+000 0 -7 -5
61 3 9 8.4900000000000003e-002 1.2570766360959691e+001 -5.0558623419222130e+001 3.9849939007311304e+000 0 -7 -5
11145 1081 15 -2.3669999999999999e-001 1.4736766574667374e+001 -5.3803507875900962e+001 8.4996787531589710e+000 0 -7 -4
7470 723 13 2.0000000000000000e-002 1.6477507512067525e+001 -4.8992517550798837e+001 4.2316229579323039e+000 0 -7 -4
7468 723 13 -4.2830000000000000e-002 1.7505594441863757e+001 -4.8081702574166300e+001 6.1260443072136184e+000 0 -7 -4
6345 614 12 3.2989999999999998e-002 1.8505899876762228e+001 -4.8696485426210970e+001 8.2384478984322485e+000 0 -8 -4
12314 1194 1 -1.9810000000000000e-001 1.7328341615232400e+001 -5.1313065380690190e+001 1.8204883148579820e+000 1 -6 -3
11140 1081 18 -4.1939999999999998e-003 1.3691272055507717e+001 -5.1620935466783912e+001 5.8147936519219474e+000 0 -7 -4
3807 365 9 8.4900000000000003e-002 1.9187664345521188e+001 -4.9945034148054290e+001 1.2343434913901415e+001 0 -7 -5
1372 130 13 -4.1939999999999998e-003 1.6748428438282026e+001 -5.1754528200990748e+001 1.0588220550629682e+001 0 -6 -5
2610 250 12 3.2989999999999998e-002 2.1109843260849530e+001 -5.0288939898615517e+001 1.7052262500626778e+000 0 -7 -4
5150 500 12 3.2989999999999998e-002 1.5011770184002126e+001 -5.1843080353395862e+001 1.2290645605077394e+001 0 -7 -5
298 24 14 4.0000000000000001e-002 2.0253694865262442e+001 -4.7580348399404663e+001 5.0241005087679822e+000 0 -4 -4
3810 365 12 3.2989999999999998e-002 1.8901900029284025e+001 -5.1221153276680340e+001 1.2518034302817547e+001 0 -7 -5
3809 365 13 -4.1939999999999998e-003 1.9963197874403395e+001 -5.1371546977300092e+001 1.2410528583292809e+001 0 -7 -5
1373 130 12 3.2989999999999998e-002 1.6092076952910425e+001 -5.2256743384237275e+001 9.8741405661836588e+000 0 -6 -5
1363 129 9 8.4900000000000003e-002 1.7492314320833778e+001 -5.3039431744717746e+001 1.0124900651267037e+001 0 -6 -5
2599 249 9 8.4900000000000003e-002 2.2168557886010383e+001 -5.2107251005426662e+001 1.2518847687154999e+001 0 -7 -5
5099 493 9 8.4900000000000003e-002 1.5289949451527612e+001 -5.3006116967788174e+001 1.1773938878986687e+001 0 -7 -5
11144 1081 14 4.0000000000000001e-002 1.3939628909243938e+001 -5.2743977638989350e+001 6.5637250179210707e+000 0 -7 -4
10036 972 9 8.4900000000000003e-002 1.2550453680362553e+001 -5.4223852742882393e+001 1.1446010098361917e+001 0 -6 -5
3811 365 12 3.2989999999999998e-002 2.0056316538566534e+001 -5.1931617080346776e+001 1.1479400341252433e+001 0 -7 -5
7473 723 3 -3.2719999999999999e-001 1.5931412977613267e+001 -5.0078162965554313e+001 3.5794437381213839e+000 0 -7 -4
11143 1081 13 2.0000000000000000e-002 1.4490358303104218e+001 -5.2671763384637245e+001 7.8432515873221869e+000 0 -7 -4
2608 250 13 -4.1939999999999998e-003 2.1257556834345337e+001 -5.0826776176020211e+001 1.2516455156741763e+001 0 -7 -5
2609 250 12 3.2989999999999998e-002 2.2348560180554273e+001 -5.0937856385336637e+001 1.2423851243979417e+001 0 -7 -5
6349 615 9 8.4900000000000003e-002 1.8250367838276528e+001 -4.9696840473170660e+001 7.6895869409614033e+000 0 -8 -4
64 3 18 -4.1939999999999998e-003 1.2992074130560226e+001 -5.1697529216162806e+001 4.6220308522081837e+000 0 -7 -5
11139 1081 15 -2.3669999999999999e-001 1.4809052753881151e+001 -5.1475523606282700e+001 8.3413213691499024e+000 0 -7 -4
7471 723 14 4.0000000000000001e-002 1.7086180526390628e+001 -4.9281966508158945e+001 5.4471425078857463e+000 0 -7 -4
1374 130 12 3.2989999999999998e-002 1.7518100941803006e+001 -5.1405277780064999e+001 9.8904285575725872e+000 0 -6 -5
5148 500 13 -4.1939999999999998e-003 1.5737682675732938e+001 -5.1465665427104369e+001 1.1558203149824759e+001 0 -7 -5
297 24 13 2.0000000000000000e-002 1.9790230695389376e+001 -4.7160649880502554e+001 3.7722030966481661e+000 0 -4 -4
5149 500 12 3.2989999999999998e-002 1.4992185747886122e+001 -5.0975815651936969e+001 1.0914819591167610e+001 0 -7 -5
8665 841 9 8.4900000000000003e-002 2.3282406539107370e+001 -4.5711830827074451e+001 4.3951293260473721e+000 0 -4 -3
10089 979 12 3.2989999999999998e-002 1.3135612405914911e+001 -5.2650247952276679e+001 1.0870769814622683e+001 0 -7 -5
8664 841 13 2.0000000000000000e-002 2.3156313009860927e+001 -4.5927889051406467e+001 3.0336183054342989e+000 0 -4 -3
10085 979 9 8.4900000000000003e-002 1.2524979440373949e+001 -5.1183581903704408e+001 1.1535396774879775e+001 0 -7 -5
7825 760 14 4.0000000000000001e-002 2.4957073534716187e+001 -4.4590325823625975e+001 6.5170118799493837e+000 0 -1 0
7824 760 13 2.0000000000000000e-002 2.5555685202919122e+001 -4.4327572260417234e+001 5.2602245876249487e+000 0 -1 0
5349 519 13 -4.1939999999999998e-003 2.6311935219792868e+001 -5.0449233193310413e+001 6.8363251482246437e+000 0 -1 0
11137 1081 9 8.4900000000000003e-002 1.4133923783490445e+001 -5.0427269016507637e+001 6.3638856967082091e+000 0 -7 -4
6344 614 13 -4.1939999999999998e-003 1.8084646075051076e+001 -4.8178205799981527e+001 7.3737154330980390e+000 0 -8 -4
1476 142 18 -4.2830000000000000e-002 2.4830273176929428e+001 -4.3435715628456720e+001 8.8216848172985785e+000 0 0 -1
2606 250 9 8.4900000000000003e-002 2.1720264469069470e+001 -4.9305998448280519e+001 1.2462431645224783e+001 0 -7 -5
6346 614 12 3.2989999999999998e-002 1.7158904446928506e+001 -4.7913975342992593e+001 7.8446082076155861e+000 0 -8 -4
3817 366 12 3.2989999999999998e-002 1.9578408816421547e+001 -4.8871776217466163e+001 1.1319945596477002e+001 0 -7 -5
11136 1081 13 2.0000000000000000e-002 1.4664206160195336e+001 -5.0335157058277865e+001 7.6510201010667318e+000 0 -7 -4
7467 723 15 -2.3669999999999999e-001 1.6452933466578305e+001 -4.7656255171519149e+001 3.8415368317780354e+000 0 -7 -4
10151 983 3 -3.2719999999999999e-001 2.1049244673054865e+001 -4.6660233593692034e+001 9.7250416641924673e+000 0 -4 -3
1370 130 9 8.4900000000000003e-002 1.7192207020418010e+001 -5.0348711703953114e+001 1.0098443900413308e+001 0 -6 -5
10152 983 18 -4.2830000000000000e-002 2.0975840140792542e+001 -4.6490670814734159e+001 7.0638198650040502e+000 0 -4 -3
58 3 18 -4.2830000000000000e-002 1.3008396036282203e+001 -4.9368531676231328e+001 4.5228874534640013e+000 0 -7 -7
3969 383 14 4.0000000000000001e-002 2.7529376665170741e+001 -4.7794271190281648e+001 2.1394589394067176e+000 0 0 0
3975 383 9 8.4900000000000003e-002 2.7450056784671929e+001 -5.0285687168948577e+001 2.3148547324815225e+000 0 0 0
4954 481 13 -4.2830000000000000e-002 1.6069712296474847e+001 -1.4206761955688243e+001 2.5004888859566492e+000 0 -7 -4
7794 755 12 3.2989999999999998e-002 2.6427961915619058e+001 -5.2828388662566894e+001 5.6942069122684282e+000 0 -1 0
5300 512 13 -4.1939999999999998e-003 2.6783865734909366e+001 -5.2944218114592431e+001 8.0540337987891029e+000 0 0 0
5350 519 12 3.2989999999999998e-002 2.7031156918019914e+001 -5.0609991887242749e+001 6.0656499392030732e+000 0 -1 0
5351 519 12 3.2989999999999998e-002 2.6647932656646866e+001 -5.0003428271513876e+001 7.7650590214659028e+000 0 -1 0
5343 518 12 3.2989999999999998e-002 2.5944039123780200e+001 -4.7659704251248904e+001 7.9423522726928804e+000 0 -1 0
5347 519 9 8.4900000000000003e-002 2.6543505670904779e+001 -4.8961402086447983e+001 6.3637181912038434e+000 0 -1 0
5298 512 9 8.4900000000000003e-002 2.7166005330561966e+001 -5.1586378239420142e+001 7.3803767810864409e+000 0 0 0
5342 518 11 -4.1939999999999998e-003 2.6808463140607941e+001 -4.7743174285514577e+001 7.3000491228895852e+000 0 -1 0
11340 1101 18 -4.2830000000000000e-002 2.7024839936164945e+001 -4.8105347595166521e+001 1.0193111002719238e+001 0 1 0
5336 517 12 3.2989999999999998e-002 2.6511954598419251e+001 -4.5328009350722581e+001 8.4293500326709996e+000 0 -1 0
5340 518 9 8.4900000000000003e-002 2.7029654224971416e+001 -4.6272188184348131e+001 6.8034141121125939e+000 0 -1 0
11334 1101 18 -4.2830000000000000e-002 2.7218270566836509e+001 -4.5534235510265198e+001 1.0337375373202967e+001 0 1 0
3960 382 18 -4.2830000000000000e-002 2.8282843419009176e+001 -4.4054673199791459e+001 1.7108746369555194e+000 0 0 0
7416 720 12 3.2989999999999998e-002 1.2956901613004165e+001 -4.8468164876178982e+001 8.2202513699413391e+000 1 -7 -5
10078 978 9 8.4900000000000003e-002 1.2644391042056276e+001 -4.8215756733209886e+001 1.1773530151179983e+001 0 -7 -5