LAMMPS data file via write_data, version 22 Aug 2018, timestep = 276191

4264 atoms
18 atom types
5926 bonds
18 bond types
11028 angles
39 angle types
20597 dihedrals
62 dihedral types
3362 impropers
9 improper types

2.3106396487740245e+001 6.2893605512243880e+001 xlo xhi
-4.7079314502225209e+001 1.9479315502225212e+001 ylo yhi
3.0905863699936593e+000 1.0709413630006390e+001 zlo zhi

Masses

1 14.0067
2 12.011
3 14.0067
4 15.9994
5 1.008
6 1.008
7 15.9994
8 12.011
9 12.011
10 1.008
11 12.011
12 1.008
13 12.011
14 12.011
15 14.0067
16 15.9994
17 14.0067
18 12.011


Bond Coeffs # harmonic

1 1365.78 1.155
2 398.26 1.093
3 1024.04 1.2
4 500.95 1.374
5 362.01 1.1
6 362.01 1.1
7 509.51 1.359
8 591.76 0.965
9 517.41 1.528
10 497.83 1.459
11 362.01 1.1
12 705.27 1.398
13 362.01 1.1
14 705.27 1.398
15 634.85 1.335
16 398.26 1.093
17 634.85 1.335
18 867.4 1.238

Angle Coeffs # harmonic

1 50 180
2 50 104.51
3 50 109.471
4 50 109.471
5 50 109.471
6 50 120
7 50 120
8 50 120
9 50 120
10 50 120
11 50 120
12 50 120
13 50 120
14 50 109.471
15 50 109.471
16 50 120
17 50 109.471
18 50 109.471
19 50 109.471
20 50 120
21 50 109.471
22 50 109.471
23 50 120
24 50 109.471
25 50 109.471
26 50 109.471
27 50 120
28 50 106.7
29 50 109.471
30 50 109.471
31 50 109.471
32 50 120
33 50 109.471
34 50 109.471
35 50 106.7
36 50 120
37 50 120
38 50 120
39 50 120

Dihedral Coeffs # harmonic

1 0 1 1
2 0 1 1
3 1 1 3
4 1 1 3
5 1 1 3
6 0.5 -1 6
7 12.5 -1 2
8 12.5 -1 2
9 0.5 -1 6
10 0.5 -1 6
11 0.5 -1 6
12 12.5 -1 2
13 12.5 -1 2
14 1 1 3
15 1 1 3
16 1 1 3
17 1 1 3
18 12.5 -1 2
19 12.5 -1 2
20 12.5 -1 2
21 0.5 -1 6
22 0.5 -1 6
23 12.5 -1 2
24 12.5 -1 2
25 12.5 -1 2
26 1 1 3
27 1 1 3
28 1 1 3
29 12.5 -1 2
30 12.5 -1 2
31 0.5 -1 6
32 0.5 -1 6
33 12.5 -1 2
34 1 1 3
35 0.5 -1 6
36 0.5 -1 6
37 1 1 3
38 1 1 3
39 1 1 3
40 1 1 3
41 1 1 3
42 1 1 3
43 1 1 3
44 0.5 -1 6
45 0.5 -1 6
46 0.5 -1 6
47 1 1 3
48 0.5 -1 6
49 0.5 -1 6
50 1 1 3
51 1 1 3
52 1 -1 2
53 0.5 -1 6
54 0.5 -1 6
55 0.5 -1 6
56 12.5 -1 2
57 12.5 -1 2
58 12.5 -1 2
59 12.5 -1 2
60 12.5 -1 2
61 12.5 -1 2
62 12.5 -1 2

Improper Coeffs # umbrella

1 20 0
2 20 0
3 20 0
4 20 0
5 20 0
6 20 0
7 20 0
8 20 0
9 20 0

Atoms # full

7466 723 14 4.0000000000000001e-002 2.5162331282273094e+001 -3.8015943253864641e+001 3.5810460644829925e+000 0 -5 -9
4106 398 13 2.0000000000000000e-002 3.0076191696710026e+001 -4.3583626006346421e+001 1.0584004632714523e+001 0 -3 -7
7468 723 13 2.0000000000000000e-002 2.5583996402900180e+001 -3.9237226236011530e+001 3.4157378077830964e+000 0 -5 -9
115 7 13 2.0000000000000000e-002 2.9020747231531892e+001 -3.7787962092520274e+001 5.8576241189919589e+000 0 -4 -10
1270 122 13 2.0000000000000000e-002 2.6668938696448389e+001 -3.8991133894901161e+001 1.0225408284806504e+001 0 -4 -10
5115 495 13 2.0000000000000000e-002 2.4660008591346507e+001 -3.7995766250858175e+001 9.0406653274468898e+000 0 -6 -10
7379 715 13 2.0000000000000000e-002 2.6159538717159233e+001 -3.6525696149311180e+001 7.3949919939752196e+000 1 -6 -10
8767 847 13 2.0000000000000000e-002 2.8028217756366658e+001 -3.7751181325900710e+001 4.9533795011160597e+000 0 -5 -9
1282 122 13 2.0000000000000000e-002 2.6915478444511038e+001 -4.2502154836311945e+001 9.1238453770644892e+000 0 -4 -10
5120 496 13 2.0000000000000000e-002 2.5120611091667762e+001 -3.9308950410264600e+001 8.8230311724672692e+000 0 -6 -10
6431 622 15 -2.3669999999999999e-001 2.9190100540351715e+001 -3.8449645166758856e+001 3.5283159233109131e+000 0 -2 -2
8758 846 14 4.0000000000000001e-002 2.7439028299130630e+001 -3.8894621183503382e+001 4.3550201428360120e+000 0 -5 -9
2657 257 13 2.0000000000000000e-002 2.7255927397028504e+001 -4.0291413452425758e+001 6.7539828032199347e+000 0 -6 -10
1276 122 13 2.0000000000000000e-002 2.6714542171342064e+001 -4.0956776602414187e+001 1.0306001235059247e+001 0 -4 -10
7471 723 13 2.0000000000000000e-002 2.5091664457998387e+001 -4.0406273704191676e+001 3.9600757246740028e+000 0 -5 -9
1285 123 13 2.0000000000000000e-002 2.8340842152244775e+001 -4.1690737446690548e+001 7.6193235953648095e+000 0 -4 -10
7402 718 13 2.0000000000000000e-002 2.4785554615269383e+001 -4.4767511377580362e+001 6.7573328361133660e+000 1 -6 -10
7477 723 13 4.0000000000000001e-002 2.5363127990645708e+001 -4.2614807711064635e+001 3.3980208918840229e+000 0 -5 -9
108 6 13 2.0000000000000000e-002 2.8989393416380576e+001 -4.0231124949035099e+001 5.5904750299395749e+000 0 -4 -10
2655 257 13 2.0000000000000000e-002 2.8241086460159284e+001 -3.9090321896097464e+001 6.8105497717292218e+000 0 -6 -10
2650 256 13 2.0000000000000000e-002 2.7715608158335854e+001 -3.7699536273428919e+001 7.0620076836525296e+000 0 -6 -10
12169 1181 15 -2.3669999999999999e-001 2.6247437228718155e+001 -3.8518549622048795e+001 5.7201187126626021e+000 1 -5 -9
7395 717 13 2.0000000000000000e-002 2.5505186988698803e+001 -4.2679611612675650e+001 6.9776358977191055e+000 1 -6 -10
113 7 13 2.0000000000000000e-002 2.9489652096792394e+001 -3.6459693322193004e+001 5.9952554371404982e+000 0 -4 -10
2662 258 13 2.0000000000000000e-002 2.7046964535158235e+001 -4.1466934755591332e+001 5.7873584607522881e+000 0 -6 -10
6447 623 13 2.0000000000000000e-002 3.0692531096631939e+001 -4.3765728840625272e+001 5.4982757024970139e+000 0 -2 -2
10272 996 13 2.0000000000000000e-002 3.2542163487586947e+001 -4.4110864406452187e+001 3.7698140052280396e+000 0 -3 -5
7450 722 13 2.0000000000000000e-002 2.5723622865393782e+001 -3.2635518118256222e+001 9.9278354626310872e+000 0 -5 -10
6432 622 13 2.0000000000000000e-002 3.1320090925932153e+001 -3.8226072771525722e+001 5.2366965653646478e+000 0 -2 -2
7696 744 13 2.0000000000000000e-002 2.8438851914194981e+001 -4.2110040962516337e+001 9.8643629260929746e+000 0 -3 -6
122 8 13 2.0000000000000000e-002 2.9392214173588091e+001 -3.5278977071472951e+001 5.0948332020094833e+000 0 -4 -10
7393 717 13 2.0000000000000000e-002 2.5582848131807499e+001 -4.1656305408335655e+001 7.9220857489759062e+000 1 -6 -10
7486 723 13 2.0000000000000000e-002 2.6311334723928233e+001 -4.4659092774205114e+001 8.1219929660029688e+000 0 -5 -10
2669 259 13 2.0000000000000000e-002 2.6584689929679399e+001 -4.4237722665839740e+001 5.5321810025969640e+000 0 -6 -10
12173 1181 13 2.0000000000000000e-002 2.5752694330580397e+001 -3.9278351650322783e+001 5.6897124901611429e+000 1 -5 -9
7474 723 13 2.0000000000000000e-002 2.5695737633753197e+001 -4.1382818287310727e+001 3.4391461882184071e+000 0 -5 -9
7480 723 13 2.0000000000000000e-002 2.6007041582339049e+001 -4.3021142523741560e+001 9.8479115886616864e+000 0 -5 -10
12174 1181 14 4.0000000000000001e-002 2.4515641480723669e+001 -3.8886955222960722e+001 5.7894867465509252e+000 1 -5 -9
7462 722 13 2.0000000000000000e-002 2.5739755499696027e+001 -3.6909557791075599e+001 3.1645287925537535e+000 0 -5 -9
1256 121 13 2.0000000000000000e-002 2.7497477467079797e+001 -3.3375287029863451e+001 9.8407679663037619e+000 0 -4 -10
1267 122 13 2.0000000000000000e-002 2.7319079446807304e+001 -3.7913489729884262e+001 9.8042503423085474e+000 0 -4 -10
5113 495 13 2.0000000000000000e-002 2.4631948072487702e+001 -3.6635242745297113e+001 8.4112180183787295e+000 0 -6 -10
2648 256 13 2.0000000000000000e-002 2.8248502897652877e+001 -3.6333639432806464e+001 6.4326724849770107e+000 0 -6 -10
7460 722 14 4.0000000000000001e-002 2.5280758631672221e+001 -3.5742674259872750e+001 3.4083439745936421e+000 0 -5 -9
1273 122 13 2.0000000000000000e-002 2.7392577888835039e+001 -3.9940222040144739e+001 9.8592209701126965e+000 0 -4 -10
1264 122 13 2.0000000000000000e-002 2.6820611190208844e+001 -3.6846523664631874e+001 1.0160790545554040e+001 0 -4 -10
10179 984 14 4.0000000000000001e-002 3.1509795963978075e+001 -3.3541714136090505e+001 9.3889730674634269e+000 0 -3 -6
1262 122 13 2.0000000000000000e-002 2.7447004992081965e+001 -3.5683226650615744e+001 1.0059251846733044e+001 0 -4 -10
5108 494 13 2.0000000000000000e-002 2.5265229496521556e+001 -3.5234036931838865e+001 8.1832047003686554e+000 0 -6 -10
7407 719 14 4.0000000000000001e-002 2.3759544817005562e+001 -4.5456897234993399e+001 7.3250621330260630e+000 -1 -6 -10
2629 253 13 2.0000000000000000e-002 2.6518114471486964e+001 -3.4809512073997340e+001 8.1920226332283796e+000 0 -6 -10
2634 254 13 2.0000000000000000e-002 2.7119146770403862e+001 -3.6126306897860935e+001 8.1896462155905176e+000 0 -6 -10
7400 718 13 2.0000000000000000e-002 2.4471660170498211e+001 -4.3565347464759107e+001 7.2661588408499531e+000 1 -6 -10
12166 1181 13 2.0000000000000000e-002 2.5979027556445285e+001 -3.7192998456042957e+001 5.6373470389445837e+000 1 -5 -9
7484 723 13 2.0000000000000000e-002 2.5640169350312807e+001 -4.4058266778496368e+001 9.0341821020162119e+000 0 -5 -10
120 8 13 2.0000000000000000e-002 2.9848438598181644e+001 -3.3901708195258223e+001 5.4581179669081026e+000 0 -4 -10
4113 399 13 2.0000000000000000e-002 2.9800797566851323e+001 -4.5928132892193361e+001 3.2057758400488914e+000 0 -3 -6
2 1 13 2.0000000000000000e-002 2.9480616348437255e+001 -4.3681133657320935e+001 4.9377804992667897e+000 0 -4 -10
101 5 13 2.0000000000000000e-002 2.8765340094430531e+001 -4.2587744160122909e+001 4.5872544995966944e+000 0 -4 -10
7672 743 13 2.0000000000000000e-002 2.8677954916115603e+001 -3.3213982933404033e+001 1.0032146378304736e+001 0 -3 -6
5127 497 13 2.0000000000000000e-002 2.4782255209655464e+001 -4.1863568963040969e+001 8.9248454494700464e+000 0 -6 -10
6436 623 14 4.0000000000000001e-002 3.0785703649175730e+001 -3.9351639380436261e+001 4.9180465426558699e+000 0 -2 -2
5106 494 13 2.0000000000000000e-002 2.4648604216446813e+001 -3.4148833315178457e+001 7.6204984322256024e+000 0 -6 -10
1258 121 13 2.0000000000000000e-002 2.6974418597645940e+001 -3.4546517468224494e+001 1.0092770243873801e+001 0 -4 -10
1252 121 13 2.0000000000000000e-002 2.6935337938677847e+001 -3.2307302956484413e+001 9.6428923438800247e+000 0 -4 -10
4104 398 13 2.0000000000000000e-002 3.0857183784378222e+001 -4.2532290225432668e+001 1.0667906833990523e+001 0 -3 -7
7456 722 13 2.0000000000000000e-002 2.5848048383293676e+001 -3.4709311515625807e+001 1.0526336037879013e+001 0 -5 -10
7386 716 13 2.0000000000000000e-002 2.6057629405289159e+001 -3.9117678325689170e+001 8.0462074958194290e+000 1 -6 -10
7698 744 13 2.0000000000000000e-002 2.8891415937533655e+001 -4.3299724825708360e+001 1.0179500911022272e+001 0 -3 -6
8654 841 13 4.0000000000000001e-002 2.6324846593253163e+001 -4.3359391395022669e+001 3.7969621000715859e+000 0 -5 -9
2627 253 14 4.0000000000000001e-002 2.7256034506133322e+001 -3.3545217135577893e+001 7.8772470007559061e+000 0 -6 -10
6441 623 13 2.0000000000000000e-002 3.0685589311759085e+001 -4.1594624250817915e+001 5.5584096990263498e+000 0 -2 -2
7453 722 13 2.0000000000000000e-002 2.5212570149878502e+001 -3.3652356978452083e+001 1.0567395858207266e+001 0 -5 -10
2643 255 13 2.0000000000000000e-002 2.7634803347581514e+001 -3.4864640524134316e+001 6.2042920743186345e+000 0 -6 -10
3769 363 14 4.0000000000000001e-002 3.0153944995153417e+001 -4.2712801298984175e+001 8.1694072968133504e+000 0 -3 -6
7381 715 13 2.0000000000000000e-002 2.6617115571806199e+001 -3.7849773139677524e+001 7.6407791639255240e+000 1 -6 -10
7674 743 13 2.0000000000000000e-002 2.9203366652811393e+001 -3.4354026911523484e+001 1.0214355804483892e+001 0 -3 -6
7388 716 13 2.0000000000000000e-002 2.6309672865589054e+001 -4.0427321221231175e+001 7.6314059487596841e+000 1 -6 -10
7367 713 11 -4.1939999999999998e-003 2.6322126721355541e+001 -3.3106061726003517e+001 4.9470818009026516e+000 1 -6 -10
7668 742 13 2.0000000000000000e-002 2.9125918631238733e+001 -3.1986164447253838e+001 1.0256037327787158e+001 0 -3 -6
106 6 13 2.0000000000000000e-002 2.9493096744150314e+001 -3.9080711711424414e+001 6.3526756863751066e+000 0 -4 -10
3776 363 14 4.0000000000000001e-002 2.9335609059221291e+001 -4.4802633274446286e+001 8.4777764885007798e+000 0 -3 -6
8760 846 13 2.0000000000000000e-002 2.7998533532732399e+001 -4.0123084350434020e+001 4.7674849935237926e+000 0 -5 -9
1287 123 15 -2.3669999999999999e-001 2.9057672025760287e+001 -4.2196530830670596e+001 6.7206676936487195e+000 0 -4 -10
7692 743 13 2.0000000000000000e-002 2.9112442818135513e+001 -4.1076267079220464e+001 9.7848398874604658e+000 0 -3 -6
4099 397 13 2.0000000000000000e-002 3.0259259077153036e+001 -4.1321214771213064e+001 1.0198981190549601e+001 0 -3 -7
99 5 13 2.0000000000000000e-002 2.9528033343524388e+001 -4.1448967036504037e+001 5.0428439567146368e+000 0 -4 -10
10263 995 13 2.0000000000000000e-002 3.2719193502128476e+001 -4.2014225029294465e+001 5.1342942542503192e+000 0 -3 -5
1280 122 13 2.0000000000000000e-002 2.7400587079292464e+001 -4.1475929929641211e+001 9.4126874361020700e+000 0 -4 -10
12161 1181 13 2.0000000000000000e-002 2.4590856562013453e+001 -3.4536547804635603e+001 5.4214617741801003e+000 1 -5 -9
6435 623 13 2.0000000000000000e-002 2.9762085709325998e+001 -3.9392604398740673e+001 4.0153236856430459e+000 0 -2 -2
6438 623 13 2.0000000000000000e-002 3.1239710218249606e+001 -4.0424839190733316e+001 5.6181433572980728e+000 0 -2 -2
12164 1181 13 2.0000000000000000e-002 2.4086911178677386e+001 -3.5605870985901142e+001 5.8630728147005113e+000 1 -5 -9
7701 744 14 4.0000000000000001e-002 2.8380618521926973e+001 -4.4447953413319581e+001 1.0255714122305330e+001 0 -3 -6
1286 123 14 4.0000000000000001e-002 2.7544507766493258e+001 -4.2656013772960804e+001 8.0258922583465324e+000 0 -4 -8
4078 394 13 2.0000000000000000e-002 3.0307057702407125e+001 -3.4286842781098535e+001 3.1541245343916442e+000 0 -3 -6
10256 994 13 2.0000000000000000e-002 3.1863347915394353e+001 -4.0207104270049413e+001 3.2619558972891332e+000 0 -3 -5
10258 994 11 -4.1939999999999998e-003 3.2162939488464737e+001 -4.1320801280384721e+001 3.9528675175543802e+000 0 -3 -5
7703 744 15 -2.3669999999999999e-001 2.6618864811333097e+001 -4.5802999823056311e+001 9.6197502588460786e+000 0 -3 -6
4097 397 13 2.0000000000000000e-002 3.0845248537758081e+001 -4.0123781852164932e+001 1.0128191245081887e+001 0 -3 -7
7690 743 13 2.0000000000000000e-002 2.8577607560441507e+001 -3.9966431935356795e+001 9.3004960452603651e+000 0 -3 -6
8774 848 13 2.0000000000000000e-002 2.8273368203847916e+001 -3.5351604321102663e+001 4.4340110323897468e+000 0 -5 -9
7677 743 13 2.0000000000000000e-002 2.8707223244789091e+001 -3.5535846994131546e+001 9.9054861275756547e+000 0 -3 -6
8656 841 2 -4.2830000000000000e-002 2.5634200939488878e+001 -4.4506335693381168e+001 3.6751892816270564e+000 0 -5 -9
6430 622 14 4.0000000000000001e-002 3.0734648518408406e+001 -3.7175675025957254e+001 4.6649858099369190e+000 0 -2 -2
10270 996 13 2.0000000000000000e-002 3.1988345239628099e+001 -4.2931220040168114e+001 3.4856051451189471e+000 0 -3 -5
7683 743 13 2.0000000000000000e-002 2.8489369657371739e+001 -3.7796535092474272e+001 9.2549682241865785e+000 0 -3 -6
8765 847 14 4.0000000000000001e-002 2.7478791247862748e+001 -3.6544736457506460e+001 4.4266815710629679e+000 0 -5 -9
7686 743 13 2.0000000000000000e-002 2.9128404803892707e+001 -3.8866758649716594e+001 8.9897081965266104e+000 0 -3 -6
4092 396 13 2.0000000000000000e-002 3.0282084222220188e+001 -3.8997760188894574e+001 9.5203814110392369e+000 0 -3 -7
8772 848 14 4.0000000000000001e-002 2.7625032378718164e+001 -3.4071830179378352e+001 4.2312252529643155e+000 0 -5 -9
8753 845 13 2.0000000000000000e-002 2.7553305291256532e+001 -4.2661374960193335e+001 4.2058848882604343e+000 0 -5 -9
127 9 13 2.0000000000000000e-002 2.8604704182237654e+001 -3.2013763043162264e+001 6.5100715136302947e+000 0 -4 -10
4085 395 13 2.0000000000000000e-002 3.0321801949485923e+001 -3.6662096698443861e+001 1.0008624330960023e+001 0 -3 -7
4090 396 13 2.0000000000000000e-002 3.0995439648350732e+001 -3.7960076259091935e+001 1.0104430687288193e+001 0 -3 -9
129 9 13 2.0000000000000000e-002 2.8966492729412490e+001 -3.2827900685389551e+001 5.4592398789192194e+000 0 -4 -10
7680 743 13 2.0000000000000000e-002 2.9111478249965675e+001 -3.6722957612211950e+001 9.6545377958951821e+000 0 -3 -6
7704 744 13 2.0000000000000000e-002 2.8624832591722530e+001 -4.5650064335479072e+001 1.0565486002973797e+001 0 -3 -6
4083 395 13 2.0000000000000000e-002 3.0909479830557739e+001 -3.5494393891367018e+001 1.0677012985357919e+001 0 -3 -7
2636 254 11 -4.1939999999999998e-003 2.8309657801539604e+001 -3.5342883922250685e+001 8.1341745723659802e+000 0 -6 -10
5122 496 13 2.0000000000000000e-002 2.4531897612264402e+001 -4.0561097237577954e+001 9.3322430697309358e+000 0 -6 -10
7374 714 13 2.0000000000000000e-002 2.6495674241393946e+001 -3.5408386085502137e+001 6.3036862611717375e+000 1 -6 -10
4111 399 13 2.0000000000000000e-002 3.0595461421475164e+001 -4.4859507407885026e+001 3.2858663365116487e+000 0 -3 -6
5101 493 13 2.0000000000000000e-002 2.5300782301601568e+001 -3.2972280505635275e+001 7.0181626477457648e+000 0 -6 -10
7372 714 13 2.0000000000000000e-002 2.5836356011225103e+001 -3.4437713235148728e+001 5.4034096952782553e+000 1 -6 -10
6426 622 13 2.0000000000000000e-002 3.1426055293550739e+001 -3.6089592836194093e+001 4.8605139449284991e+000 0 -2 -2
2641 255 13 2.0000000000000000e-002 2.8802974923137491e+001 -3.4873598062269295e+001 6.9667581066249191e+000 0 -6 -10
5136 498 11 -4.1939999999999998e-003 2.4332194407202024e+001 -4.5954463271492322e+001 9.4166404422898022e+000 0 -6 -10
8751 845 13 2.0000000000000000e-002 2.7340407330211331e+001 -4.1322367346546343e+001 4.5036679185358359e+000 0 -5 -9
10182 984 13 2.0000000000000000e-002 3.1179452132425240e+001 -3.4665969773011483e+001 8.8125925768866562e+000 0 -3 -6
10277 997 13 2.0000000000000000e-002 3.1759417556974881e+001 -4.5140364839039115e+001 3.5839782221380490e+000 0 -3 -5
2664 258 13 2.0000000000000000e-002 2.6372374402947177e+001 -4.2786026107909102e+001 5.9910686003630467e+000 0 -6 -10
3763 363 14 4.0000000000000001e-002 3.0739753347845372e+001 -4.0318372990539743e+001 7.8244587949225597e+000 0 -3 -6
12167 1181 14 4.0000000000000001e-002 2.4763489470338854e+001 -3.6748724286129764e+001 5.9082980885022769e+000 1 -5 -9
3742 362 13 2.0000000000000000e-002 2.9810956444441597e+001 -3.3044515957078609e+001 8.1008390302879203e+000 0 -3 -6
3772 363 13 2.0000000000000000e-002 3.0367961226646120e+001 -4.3999174153076758e+001 8.4162787635613068e+000 0 -3 -6
3745 362 13 2.0000000000000000e-002 2.9682222086208554e+001 -3.4259276956699381e+001 7.6458074272224072e+000 0 -3 -6
10175 984 15 -2.3669999999999999e-001 3.2409811553389481e+001 -3.2332999642600853e+001 3.2910439390903119e+000 0 -3 -5
7700 744 13 2.0000000000000000e-002 2.7235630898956732e+001 -4.4647787005345428e+001 9.8776485965488838e+000 0 -3 -6
10176 984 13 2.0000000000000000e-002 3.0739613829814331e+001 -3.2645632859857045e+001 8.9699041390242389e+000 0 -3 -4
3758 363 13 2.0000000000000000e-002 3.2152419547185502e+001 -3.8334082065554625e+001 8.2857064571079384e+000 0 -3 -6
1288 123 13 2.0000000000000000e-002 2.7268006528545783e+001 -4.3862197875352493e+001 7.7124979875584874e+000 0 -4 -10
3748 362 13 2.0000000000000000e-002 3.0440936413746147e+001 -3.5303545936567403e+001 7.9567057423450533e+000 0 -3 -6
6423 622 13 2.0000000000000000e-002 3.1307621432642804e+001 -3.4933240843087837e+001 5.5589951824998245e+000 0 -2 -2
3754 362 13 2.0000000000000000e-002 3.1393948271518006e+001 -3.7283297518757813e+001 8.0725735670058416e+000 0 -3 -6
3752 362 14 4.0000000000000001e-002 3.0312623004284596e+001 -3.6648151143494360e+001 7.6549845086565691e+000 0 -3 -4
10249 993 13 2.0000000000000000e-002 3.2058934863308835e+001 -3.8248738262378701e+001 3.2324771783578519e+000 0 -3 -5
1300 123 13 2.0000000000000000e-002 2.9668912416016717e+001 -4.5394107935938713e+001 5.3685367707904428e+000 0 -4 -10
3739 362 13 2.0000000000000000e-002 2.9129392027902515e+001 -3.2084940494497701e+001 7.6390789684817282e+000 0 -3 -6
5134 498 13 2.0000000000000000e-002 2.4646190937781736e+001 -4.4570582040726357e+001 9.4317677869376126e+000 0 -6 -10
7490 724 13 2.0000000000000000e-002 2.6042559647921426e+001 -4.6005816223289258e+001 7.9676894659236641e+000 0 -5 -10
6429 622 13 2.0000000000000000e-002 2.9671642411640001e+001 -3.7242098123350338e+001 3.9072129122268997e+000 0 -2 -2
2468 240 13 2.0000000000000000e-002 2.4580993783308841e+001 -4.0922354381658216e+001 6.6444002156929249e+000 1 -6 -10
2671 259 13 2.0000000000000000e-002 2.5657283527334020e+001 -4.5225579743561745e+001 5.9872393419321419e+000 0 -6 -10
7 1 13 2.0000000000000000e-002 2.7479783018741145e+001 -4.5056918267362505e+001 5.0159859312738195e+000 0 -4 -10
1294 123 13 2.0000000000000000e-002 2.8172607799330859e+001 -4.5501948569216403e+001 6.8931579515397630e+000 0 -4 -10
1291 123 14 4.0000000000000001e-002 2.8187866172494285e+001 -4.4198545595991199e+001 6.9804993896135237e+000 0 -4 -10
1290 123 13 2.0000000000000000e-002 2.8966640008786353e+001 -4.3205159552797149e+001 6.6149047692988994e+000 0 -4 -10
8659 841 14 4.0000000000000001e-002 2.6046964069584646e+001 -4.5741204100760555e+001 3.7627250585573822e+000 0 -5 -9
4 1 13 2.0000000000000000e-002 2.8693602845212691e+001 -4.4700047746792620e+001 4.9593077953478151e+000 0 -4 -10
6450 623 13 2.0000000000000000e-002 3.1445988586002205e+001 -4.4688630140232824e+001 6.0660877413902048e+000 0 -2 -2
6444 623 13 2.0000000000000000e-002 3.1262400969838222e+001 -4.2741364381208143e+001 5.9121771248960595e+000 0 -2 -2
10251 993 13 2.0000000000000000e-002 3.2711240708472339e+001 -3.9335990878389183e+001 3.7134956189418387e+000 0 -3 -5
10186 984 13 2.0000000000000000e-002 3.1705755595612864e+001 -3.5430652664812229e+001 9.6037546164013037e+000 0 -3 -6
10188 984 13 2.0000000000000000e-002 3.1851303597533175e+001 -3.6557605399258009e+001 9.1022894761918849e+000 0 -3 -6
5214 503 13 2.0000000000000000e-002 3.2616756678629564e+001 -4.4849785748101390e+001 6.5887681752817242e+000 0 -2 -2
6309 609 13 2.0000000000000000e-002 3.1875532821512863e+001 -3.2952450120034428e+001 6.9810144336909152e+000 0 -3 -6
10178 984 13 2.0000000000000000e-002 3.2292238771862927e+001 -3.3394732517457022e+001 1.0427300069489208e+001 0 -3 -6
5202 503 13 2.0000000000000000e-002 3.2385443586696226e+001 -4.0416795275182366e+001 6.2112907696783211e+000 0 -2 -2
5208 503 13 2.0000000000000000e-002 3.2449995092777598e+001 -4.2781735130203096e+001 6.4815492206885237e+000 0 -2 -2
5196 502 13 2.0000000000000000e-002 3.2321329246238555e+001 -3.8162009717835318e+001 6.0885935111999210e+000 0 -2 -2
4076 394 13 2.0000000000000000e-002 2.9983768793772203e+001 -3.3411873396284200e+001 4.2158652411788067e+000 0 -3 -6
6307 609 13 2.0000000000000000e-002 3.0965217067095239e+001 -3.2414199124080419e+001 6.0597203902130241e+000 0 -3 -6
5129 497 13 2.0000000000000000e-002 2.4215657624594542e+001 -4.3194733478553921e+001 9.5983448335753927e+000 0 -6 -10
11274 1092 13 2.0000000000000000e-002 2.4008503685957891e+001 -4.6323933006252673e+001 3.4904376056303374e+000 0 -5 -9
7465 723 13 2.0000000000000000e-002 2.4024596758611324e+001 -3.7902344574675638e+001 4.1547538687327954e+000 0 -5 -9
7459 722 13 2.0000000000000000e-002 2.4147134369750681e+001 -3.5857833897984158e+001 3.9492934000128157e+000 0 -5 -9
12156 1181 13 2.0000000000000000e-002 2.4294524628886304e+001 -3.3320383748917536e+001 3.8224811883358956e+000 1 -5 -9
12187 1182 15 -2.3669999999999999e-001 2.4144121304523541e+001 -4.4671428118533548e+001 4.9129530701894222e+000 1 -5 -9
10265 995 13 2.0000000000000000e-002 3.2983973450135814e+001 -4.1924443665278275e+001 3.7439974133387457e+000 0 -3 -5
10296 1000 13 2.0000000000000000e-002 3.2962731690632296e+001 -3.5286662716065635e+001 3.4297284506925867e+000 0 -3 -5
5200 503 14 4.0000000000000001e-002 3.2829739772646342e+001 -3.9255933912045151e+001 6.4894643380150452e+000 0 -2 -2
5194 502 13 2.0000000000000000e-002 3.2652261345153875e+001 -3.6962029289335661e+001 6.4671422418627946e+000 0 -2 -2
10297 1000 14 4.0000000000000001e-002 3.2542228757977760e+001 -3.6400849929662670e+001 1.0309948140942856e+001 0 -3 -6
5205 503 13 2.0000000000000000e-002 3.2954846466304247e+001 -4.1581009016387256e+001 6.3695995061122357e+000 0 -2 -2
5211 503 14 4.0000000000000001e-002 3.3240437334000688e+001 -4.3743970321451393e+001 6.9385612844357141e+000 0 -2 -2
3766 363 13 2.0000000000000000e-002 3.0920006256006971e+001 -4.1648547814316458e+001 8.1384329173121728e+000 0 -3 -6
3760 363 13 2.0000000000000000e-002 3.1821485734844579e+001 -3.9601518725968972e+001 8.2854205573523334e+000 0 -3 -6
6417 622 13 2.0000000000000000e-002 3.1952610549206486e+001 -3.2673276035839081e+001 5.3189174281586302e+000 0 -2 -2
5190 502 13 2.0000000000000000e-002 3.2269741919437791e+001 -3.6132690855548347e+001 5.7037640580919629e+000 0 -2 -2
6300 608 13 2.0000000000000000e-002 3.1898771196501777e+001 -3.4336249572033545e+001 6.6160196788481915e+000 0 -3 -6
6420 622 13 2.0000000000000000e-002 3.2012447177209800e+001 -3.3951521609660880e+001 5.0053562233879836e+000 0 -2 -2
6302 608 13 2.0000000000000000e-002 3.2861829257744262e+001 -3.4701130332018820e+001 7.4867390487440950e+000 0 -3 -6
6190 601 13 2.0000000000000000e-002 3.1544122478482706e+001 -4.4551120529475455e+001 8.6824850430849327e+000 0 -3 -6
4071 393 13 2.0000000000000000e-002 2.9982008545238951e+001 -3.2002463266694797e+001 3.6021846307307777e+000 0 -3 -6
8781 849 13 2.0000000000000000e-002 2.8051021730238382e+001 -3.2758602818180933e+001 4.6168731419673135e+000 0 -5 -9
6414 622 13 2.0000000000000000e-002 3.2755070025677448e+001 -3.1672424239334724e+001 5.0688744945410056e+000 0 -2 -2
7447 722 14 4.0000000000000001e-002 2.5050602337337754e+001 -3.1611094467764456e+001 1.0064718791094291e+001 0 -5 -10
2676 260 13 2.0000000000000000e-002 2.6466234513447457e+001 -3.2570598877707312e+001 7.1762016786358629e+000 0 -6 -10
136 10 11 -4.1939999999999998e-003 2.7586478988760220e+001 -3.1039528127507360e+001 6.8071343441929395e+000 0 -4 -10
12184 1182 13 2.0000000000000000e-002 2.4230803153332715e+001 -4.3337177009789535e+001 4.9775269151652735e+000 1 -5 -9
2674 260 13 2.0000000000000000e-002 2.4518591176789286e+001 -3.1143737851420511e+001 8.0482379476204926e+000 0 -6 -10
8779 849 13 2.0000000000000000e-002 2.7606899946391156e+001 -3.1410385000935818e+001 4.5530219168375945e+000 0 -5 -9
7365 713 13 2.0000000000000000e-002 2.6329341566162121e+001 -3.1725050741921816e+001 4.3255339539272226e+000 1 -6 -10
5099 493 13 2.0000000000000000e-002 2.4939485508857299e+001 -3.1807807596935639e+001 6.1594345988783115e+000 0 -6 -10
2675 260 14 4.0000000000000001e-002 2.5788375342530717e+001 -3.1385000211632608e+001 7.8083701864298085e+000 0 -6 -10
377 35 13 2.0000000000000000e-002 3.2518909691598509e+001 -3.2239685327280505e+001 7.8527236000734373e+000 0 -3 -7
10298 1000 13 2.0000000000000000e-002 3.2938779057751134e+001 -3.7327757137728995e+001 3.6019044923481078e+000 0 -3 -5
382 36 14 4.0000000000000001e-002 3.3373571396974960e+001 -3.2532713074310479e+001 8.8617233289030732e+000 0 -3 -9
5184 502 13 2.0000000000000000e-002 3.3313243971627244e+001 -3.4067978424679055e+001 4.8351646678992823e+000 0 -2 -2
6184 601 13 2.0000000000000000e-002 3.2001336457644349e+001 -4.2204484635014119e+001 8.6645831981745811e+000 0 -3 -6
6293 607 13 2.0000000000000000e-002 3.3197033073121041e+001 -3.6108157651477953e+001 7.3184453352352117e+000 0 -3 -6
5187 502 14 4.0000000000000001e-002 3.3275228545534695e+001 -3.5317116456108501e+001 5.3680683027682772e+000 0 -2 -2
6187 601 13 2.0000000000000000e-002 3.2303478113154689e+001 -4.3495865752018346e+001 8.8329018306377041e+000 0 -3 -6
6286 606 13 2.0000000000000000e-002 3.3289202458457922e+001 -3.7687216975402109e+001 8.6922956820499504e+000 0 -3 -6
384 36 13 2.0000000000000000e-002 3.3378995220239759e+001 -3.3850283147007055e+001 8.3957772969871662e+000 0 -3 -7
5178 502 13 2.0000000000000000e-002 3.3908960821945229e+001 -3.1842675439094069e+001 4.5721783945964338e+000 0 -2 -2
6295 607 13 2.0000000000000000e-002 3.3664563449419461e+001 -3.6340184520972038e+001 8.5381254307239427e+000 0 -3 -6
356 32 13 2.0000000000000000e-002 3.3667940073125791e+001 -3.9624632989613680e+001 4.4936231508285758e+000 0 -2 -6
342 30 13 2.0000000000000000e-002 3.3684264671371352e+001 -4.4288258859580147e+001 4.2084028261276671e+000 0 -2 -6
349 31 13 2.0000000000000000e-002 3.4178774788839334e+001 -4.2071824948242892e+001 4.1496171016865206e+000 0 -2 -6
6281 605 13 2.0000000000000000e-002 3.2849525434795332e+001 -3.9949633629365955e+001 9.1016784407563716e+000 0 -3 -6
4184 403 13 2.0000000000000000e-002 3.9198118189782782e+001 -4.4801074138140265e+001 6.6328214941597707e+000 0 6 10
3046 294 14 4.0000000000000001e-002 3.8959534975052229e+001 -3.3130369859993728e+001 8.0638810774768803e+000 0 5 9
555 51 13 2.0000000000000000e-002 3.6695589652883221e+001 -4.2712180335088199e+001 4.2790592210382865e+000 0 5 8
3041 293 11 -4.1939999999999998e-003 3.9641358803148556e+001 -3.2075810126208431e+001 7.4513881417326182e+000 0 5 9
4136 401 13 2.0000000000000000e-002 3.8794428449063474e+001 -3.3206949032064685e+001 3.6153412430454663e+000 0 6 10
6794 660 13 2.0000000000000000e-002 3.8730621234413938e+001 -3.5852253086747979e+001 9.0619310222951306e+000 0 6 9
6782 658 13 2.0000000000000000e-002 3.9838953210931187e+001 -4.5951760216464415e+001 3.9959624217018508e+000 0 6 10
2736 263 13 2.0000000000000000e-002 3.5366891217781905e+001 -3.7565127068644919e+001 7.4481245935610367e+000 0 1 2
7922 764 13 2.0000000000000000e-002 4.2037675122431388e+001 -3.1961246426846959e+001 4.0589349491625377e+000 0 6 11
6770 656 11 -4.1939999999999998e-003 4.0890323178675573e+001 -4.2306640165517280e+001 5.5487511497873330e+000 0 6 10
403 39 13 2.0000000000000000e-002 3.5271884714222828e+001 -3.6814073326844472e+001 3.8735453786059661e+000 0 -3 -6