LAMMPS data file via write_data, version 11 Aug 2017, timestep = 202

7824 atoms
18 atom types
9007 bonds
18 bond types
15688 angles
39 angle types
21204 dihedrals
62 dihedral types
2294 impropers
9 improper types

-8.7773942153683606e+000 9.4777396215357669e+001 xlo xhi
-5.6103390369837882e+001 2.8503391369837885e+001 ylo yhi
-3.0148203603894990e+000 1.6814820360389273e+001 zlo zhi

Masses

1 14.0067
2 12.011
3 14.0067
4 15.9994
5 1.008
6 1.008
7 15.9994
8 12.011
9 12.011
10 1.008
11 12.011
12 1.008
13 12.011
14 12.011
15 14.0067
16 15.9994
17 14.0067
18 12.011


Bond Coeffs # harmonic

1 1365.78 1.155
2 398.26 1.093
3 1024.04 1.2
4 500.95 1.374
5 362.01 1.1
6 362.01 1.1
7 509.51 1.359
8 591.76 0.965
9 517.41 1.528
10 497.83 1.459
11 362.01 1.1
12 705.27 1.398
13 362.01 1.1
14 705.27 1.398
15 634.85 1.335
16 398.26 1.093
17 634.85 1.335
18 867.4 1.238

Angle Coeffs # harmonic

1 50 180
2 50 104.51
3 50 109.471
4 50 109.471
5 50 109.471
6 50 120
7 50 120
8 50 120
9 50 120
10 50 120
11 50 120
12 50 120
13 50 120
14 50 109.471
15 50 109.471
16 50 120
17 50 109.471
18 50 109.471
19 50 109.471
20 50 120
21 50 109.471
22 50 109.471
23 50 120
24 50 109.471
25 50 109.471
26 50 109.471
27 50 120
28 50 106.7
29 50 109.471
30 50 109.471
31 50 109.471
32 50 120
33 50 109.471
34 50 109.471
35 50 106.7
36 50 120
37 50 120
38 50 120
39 50 120

Dihedral Coeffs # harmonic

1 0 1 1
2 0 1 1
3 1 1 3
4 1 1 3
5 1 1 3
6 0.5 -1 6
7 12.5 -1 2
8 12.5 -1 2
9 0.5 -1 6
10 0.5 -1 6
11 0.5 -1 6
12 12.5 -1 2
13 12.5 -1 2
14 1 1 3
15 1 1 3
16 1 1 3
17 1 1 3
18 12.5 -1 2
19 12.5 -1 2
20 12.5 -1 2
21 0.5 -1 6
22 0.5 -1 6
23 12.5 -1 2
24 12.5 -1 2
25 12.5 -1 2
26 1 1 3
27 1 1 3
28 1 1 3
29 12.5 -1 2
30 12.5 -1 2
31 0.5 -1 6
32 0.5 -1 6
33 12.5 -1 2
34 1 1 3
35 0.5 -1 6
36 0.5 -1 6
37 1 1 3
38 1 1 3
39 1 1 3
40 1 1 3
41 1 1 3
42 1 1 3
43 1 1 3
44 0.5 -1 6
45 0.5 -1 6
46 0.5 -1 6
47 1 1 3
48 0.5 -1 6
49 0.5 -1 6
50 1 1 3
51 1 1 3
52 1 -1 2
53 0.5 -1 6
54 0.5 -1 6
55 0.5 -1 6
56 12.5 -1 2
57 12.5 -1 2
58 12.5 -1 2
59 12.5 -1 2
60 12.5 -1 2
61 12.5 -1 2
62 12.5 -1 2

Improper Coeffs # umbrella

1 20 0
2 20 0
3 20 0
4 20 0
5 20 0
6 20 0
7 20 0
8 20 0
9 20 0

Atoms # full

5092 492 9 8.4900000000000003e-002 -8.4925384586728168e+000 -4.6081492615807498e+001 1.2470253459870429e+001 0 -2 -2
5081 490 12 3.2989999999999998e-002 -8.5400081225535587e+000 -5.3179904649551361e+001 1.2677171743388152e+001 0 -2 -2
5075 489 12 3.2989999999999998e-002 -8.4765317973194190e+000 -5.5797407237831727e+001 1.4446634109971248e+001 0 -2 -2
6182 601 14 4.0000000000000001e-002 8.2876252198289002e+000 -5.5771446369195324e+001 7.5981638770339197e+000 0 -3 -1
9897 961 3 -3.2719999999999999e-001 -8.1192036230254754e+000 -5.3765443242881176e+001 3.6851944854486722e-002 0 -2 -1
11330 1100 12 3.2989999999999998e-002 2.1992587548578362e+000 -5.6054329087827533e+001 8.4816559135761995e+000 0 -3 -1
4164 402 14 4.0000000000000001e-002 3.9602067843138947e+001 -2.5171832695324515e+001 2.1612454733549220e+000 0 3 2
8011 777 9 8.4900000000000003e-002 3.4705800043106144e+001 -1.3948472678621542e+001 -1.5808822963588416e+000 0 2 2
7606 738 9 8.4900000000000003e-002 2.2392410774241518e+000 -5.4598527431161479e+001 6.0809568677029147e-001 0 -3 -1
9891 961 15 -2.3669999999999999e-001 -8.1199869288216977e+000 -5.1408812379265676e+001 2.7492029690560926e-001 0 -2 -1
319 27 9 8.4900000000000003e-002 7.5182904355609965e+000 -5.5867887436497860e+001 1.7641607403060744e-001 0 1 -1
1786 170 12 3.2989999999999998e-002 3.9581870671484651e+001 -1.3842048719977088e+001 1.5206855017686568e+001 0 4 1
4163 402 13 2.0000000000000000e-002 4.0129140072795728e+001 -2.5130397010214004e+001 8.6428838069454683e-001 0 3 2
329 28 12 3.2989999999999998e-002 7.9634273789103052e+000 -5.4207131994700291e+001 1.5160841767140447e+000 0 1 -1
328 28 11 -4.1939999999999998e-003 8.0930182203076200e+000 -5.4375815462106544e+001 4.3882540126327585e-001 0 1 -1
6282 605 12 3.2989999999999998e-002 7.3002871787460037e+000 -5.4173230138820770e+001 6.5147266235095254e+000 0 -3 -1
6281 605 11 -4.1939999999999998e-003 7.7975378668500372e+000 -5.4250652444258620e+001 7.4923475379520346e+000 0 -3 -1
6283 605 12 3.2989999999999998e-002 7.0156062295979158e+000 -5.4172909132460880e+001 8.2640098889946021e+000 0 -3 -1
7602 737 12 3.2989999999999998e-002 1.9586948903660972e+000 -5.3141496171278391e+001 -9.6587818642652123e-001 0 -3 -1
7603 737 12 3.2989999999999998e-002 6.2869872599007937e-001 -5.3199227049623985e+001 1.9864599235000990e-001 0 -3 -1
7601 737 11 -4.1939999999999998e-003 1.7244339508598321e+000 -5.3185232596445324e+001 1.0678830949886078e-001 0 -3 -1
7599 737 9 8.4900000000000003e-002 2.2065283920865291e+000 -5.1815359273514808e+001 7.4923986556362066e-001 0 -3 -1
194 18 12 3.2989999999999998e-002 -6.5327351973624381e-001 -5.5752562292624098e+001 3.2684819113120782e+000 0 -3 -2
192 18 11 -4.1939999999999998e-003 -1.7407169869634600e+000 -5.5624852814837361e+001 3.1824022478793976e+000 0 -3 -2
193 18 12 3.2989999999999998e-002 -2.1510352384886113e+000 -5.5672795680602000e+001 4.2022882535058095e+000 0 -3 -2
11327 1100 14 4.0000000000000001e-002 3.0393634099024149e+000 -5.4652377845640309e+001 7.0524764597782283e+000 0 -3 -1
4135 401 15 -2.3669999999999999e-001 4.0240808780151866e+001 -1.4204744828186259e+001 -4.4214638200442141e-001 0 3 2
1757 166 12 3.2989999999999998e-002 3.7987444347122043e+001 -2.5243180106523194e+001 1.3704746190589523e+001 0 4 1
190 18 9 8.4900000000000003e-002 -1.9546462835172722e+000 -5.4089849129908551e+001 2.7130730923921020e+000 0 -3 -2
11217 1084 15 -2.3669999999999999e-001 4.8142386055289998e+000 -5.3107063179005614e+001 6.2500724398372061e+000 0 -3 -1
11326 1100 13 2.0000000000000000e-002 4.3287681433034297e+000 -5.4396897985345305e+001 6.5390419937175865e+000 0 -3 -1
11218 1084 2 -4.2830000000000000e-002 2.3498446826764301e+000 -5.3392118072985312e+001 7.1934363084125064e+000 0 -3 -1
187 17 12 3.2989999999999998e-002 -3.2135986970751712e-001 -5.2851245442161606e+001 3.4555520325820361e+000 0 -3 -2
9077 881 9 8.4900000000000003e-002 3.8572064724146465e+001 -2.5354360145627652e+001 4.6972973771431281e+000 0 3 2
1785 170 12 3.2989999999999998e-002 3.7818703416956808e+001 -1.3913235314217159e+001 1.5077472936177942e+001 0 4 1
185 17 11 -4.1939999999999998e-003 -1.4123711243324262e+000 -5.2737903173183959e+001 3.4215300271143776e+000 0 -3 -2
11216 1084 14 4.0000000000000001e-002 2.8263672319522448e+000 -5.2060666589046733e+001 6.8902381737921106e+000 0 -3 -1
186 17 12 3.2989999999999998e-002 -1.7734444030622041e+000 -5.2794677225196708e+001 4.4596401050447181e+000 0 -3 -2
11215 1084 13 2.0000000000000000e-002 4.1381716186302766e+000 -5.1942120216964071e+001 6.4024812194231604e+000 0 -3 -1
9894 961 13 2.0000000000000000e-002 -7.6176646197963240e+000 -5.2534658405945514e+001 -2.8495755386729371e-001 0 -2 -1
9900 961 13 2.0000000000000000e-002 -7.6343729681320243e+000 -5.4941163860255678e+001 -5.7835789211578670e-001 0 -2 -1
5074 489 12 3.2989999999999998e-002 -7.9838268944401349e+000 -5.5892691488533210e+001 1.2742640119788714e+001 0 -2 -2
10363 1003 15 -2.3669999999999999e-001 2.9586781893095868e+001 -2.6762087740145422e+001 1.6679727706406567e+001 0 3 1
1784 170 11 -4.1939999999999998e-003 3.8747783924676845e+001 -1.3883919319332861e+001 1.4490523257523652e+001 0 4 1
5499 531 11 -4.1939999999999998e-003 3.0327088207777521e+001 -1.6087890372943356e+001 1.2105227766485360e+001 0 3 1
10336 1002 13 2.0000000000000000e-002 2.9564443817562257e+001 -1.5729500896818358e+001 -2.6394065129891868e+000 0 3 2
326 28 9 8.4900000000000003e-002 7.6330333344967638e+000 -5.2980755584912799e+001 -2.4227211017216260e-001 0 1 -1
335 29 11 -4.1939999999999998e-003 8.2879665047720827e+000 -5.1504732586108169e+001 -1.1376835508248728e-001 0 1 -1
11556 1121 14 4.0000000000000001e-002 3.2059479885378941e+001 -1.5592562814678372e+001 7.2590832045850817e-001 0 3 2
6797 660 12 3.2989999999999998e-002 3.3390102505335214e+001 -2.7567607954679488e+001 8.4878061919827488e+000 0 3 1
333 29 9 8.4900000000000003e-002 7.6501380798113798e+000 -5.0086978887116480e+001 -5.6641954375494052e-001 0 1 -1
6288 606 11 -4.1939999999999998e-003 7.8877260152398101e+000 -5.1464580591358370e+001 7.5240961207087480e+000 0 -3 -1
6290 606 12 3.2989999999999998e-002 7.0325196913683090e+000 -5.1479413215800868e+001 8.2173565086646381e+000 0 -3 -1
6289 606 12 3.2989999999999998e-002 7.4750402795972084e+000 -5.1422687363823769e+001 6.5059215733180640e+000 0 -3 -1
9898 961 2 -4.2830000000000000e-002 -6.0569061851888089e+000 -5.3550640080650190e+001 -1.7665317506875304e+000 0 -2 -1
11208 1084 13 2.0000000000000000e-002 4.0493750302908680e+000 -4.9501364461866672e+001 6.2485145513175526e+000 0 -3 -3
3753 362 15 -2.3669999999999999e-001 3.2241491267866254e+000 -5.3248649096633784e+001 1.1964727193857437e+001 0 -3 -2
2487 241 15 -2.3669999999999999e-001 -6.6648351998332533e-001 -5.3295742335872461e+001 -2.2693003959611597e+000 0 -3 -1
2488 241 18 -4.1939999999999998e-003 8.9161984500326863e-001 -5.3264563215529002e+001 1.5330280218217538e+001 0 -3 -2
11209 1084 9 8.4900000000000003e-002 2.7217327026087914e+000 -4.9554049277269407e+001 6.7101939580198433e+000 0 -3 -1
3754 362 18 -4.2830000000000000e-002 1.6897211235909810e+000 -5.3253229086461118e+001 1.4181239698671085e+001 0 -3 -2
1251 121 15 -2.3669999999999999e-001 -1.7915017100365751e+000 -5.3411723907975620e+001 7.7589607513889742e+000 0 -2 -2
1252 121 2 -4.2830000000000000e-002 -9.9939140780765912e-001 -5.3386755558120875e+001 1.0378529378647068e+001 0 -2 -2
2494 241 18 -4.2830000000000000e-002 9.0502304822612745e-001 -5.5750499548537384e+001 1.5373717599540228e+001 0 -3 -2
3760 363 18 -4.2830000000000000e-002 1.7350311018998088e+000 -5.5745531717114872e+001 1.4237988175735918e+001 0 -3 -2
7596 736 12 3.2989999999999998e-002 7.5891715576331964e-001 -5.0397762559399453e+001 -2.8471297543519090e-002 0 -3 -1
1257 121 15 -2.3669999999999999e-001 -1.6994899848071112e+000 -5.5863238290876595e+001 7.7064728919100478e+000 0 -2 -2
7595 736 12 3.2989999999999998e-002 2.3325923053562994e+000 -5.0347593435560590e+001 -8.4304300452126946e-001 0 -3 -1
7594 736 11 -4.1939999999999998e-003 1.8445220794808479e+000 -5.0393594438765099e+001 1.4247186804684617e-001 0 -3 -1
1258 121 2 -4.2830000000000000e-002 -9.4409738396036591e-001 -5.5860000919735761e+001 1.0297938050843849e+001 0 -2 -2
2493 241 15 -2.3669999999999999e-001 -6.8767042450006166e-001 -5.5749346852606948e+001 -2.2651254279818844e+000 0 -3 -1
9901 961 9 8.4900000000000003e-002 -6.5458986461760915e+000 -5.4859455247135472e+001 -1.4650354406315516e+000 0 -2 -1
3759 363 15 -2.3669999999999999e-001 3.3291068940159998e+000 -5.5742302680745780e+001 1.2051093564386427e+001 0 -3 -2
11212 1084 2 -4.2830000000000000e-002 2.1165274241752337e+000 -5.0820906717077868e+001 7.0230141386395966e+000 0 -3 -1
7592 736 9 8.4900000000000003e-002 2.1626339598904396e+000 -4.9021133418962528e+001 8.7600518078035250e-001 0 -3 -1
11211 1084 15 -2.3669999999999999e-001 4.6702176118665095e+000 -5.0712091011297389e+001 6.1250189084431339e+000 0 -3 -1
6666 644 14 4.0000000000000001e-002 3.2927487121362567e+001 -1.5992276782422220e+001 8.5423061247876770e+000 0 3 1
183 17 9 8.4900000000000003e-002 -1.6499049438643969e+000 -5.1199887118376544e+001 2.9745926884868412e+000 0 -3 -2
5703 551 9 8.4900000000000003e-002 4.2774264221703795e+001 -2.5089550977492671e+001 9.1771948557206962e+000 0 3 2
2491 241 13 2.0000000000000000e-002 -3.1991749659024771e-001 -5.4522585107285813e+001 -2.7703105301884681e+000 0 -3 -1
1256 121 14 4.0000000000000001e-002 -1.1596870835104702e+000 -5.4611002725781830e+001 9.6723165973888019e+000 0 -2 -2
3757 363 13 2.0000000000000000e-002 2.9199430048423731e+000 -5.4518372983818900e+001 1.2517317171769109e+001 0 -3 -2
3758 363 14 4.0000000000000001e-002 2.1067773407537018e+000 -5.4504852174707729e+001 1.3659970427196034e+001 0 -3 -2
2492 241 14 4.0000000000000001e-002 4.9644041489670798e-001 -5.4502444831227209e+001 1.5915616869610018e+001 0 -3 -2
1255 121 13 2.0000000000000000e-002 -1.5601470560857227e+000 -5.4637277865197191e+001 8.3235923907389129e+000 0 -2 -2
5073 489 11 -4.1939999999999998e-003 -7.6116164686156180e+000 -5.5748543099285627e+001 1.3767191425099686e+001 0 -2 -2
180 16 12 3.2989999999999998e-002 4.5355168835144857e-002 -4.9962028518368506e+001 3.5716031081849531e+000 0 -3 -2
178 16 11 -4.1939999999999998e-003 -1.0476239427646941e+000 -4.9850286356248581e+001 3.6385339358124211e+000 0 -3 -2
176 16 9 8.4900000000000003e-002 -1.3554962003587165e+000 -4.8313976684978762e+001 3.2229326685260786e+000 0 -3 -2
4139 401 13 2.0000000000000000e-002 4.0089211985908442e+001 -1.5350171042749910e+001 2.9356730656769919e-001 0 3 2
11205 1084 3 -3.2719999999999999e-001 4.7034933760901501e+000 -4.8248146674470810e+001 6.0327223870747204e+000 0 -3 -3
9895 961 14 4.0000000000000001e-002 -6.5677667738844958e+000 -5.2345051691283992e+001 -1.1991742965262215e+000 0 -2 -1
11206 1084 2 -4.2830000000000000e-002 2.0579274000493988e+000 -4.8291837765066624e+001 6.7162193873513978e+000 0 -3 -1
179 16 12 3.2989999999999998e-002 -1.3086633970250279e+000 -4.9915268983744149e+001 4.7060546918878519e+000 0 -3 -2
7967 771 1 -1.9810000000000000e-001 3.4114489395137163e+001 -2.5468805448479287e+001 1.4086095579345230e+001 0 3 1
2485 241 9 8.4900000000000003e-002 4.7854340080398855e-001 -5.2027457594131576e+001 1.5892342470767442e+001 0 -3 -2
3752 362 14 4.0000000000000001e-002 2.0273703151735409e+000 -5.1998706601390985e+001 1.3607375863416715e+001 0 -3 -2
4140 401 14 4.0000000000000001e-002 3.9876457801941655e+001 -1.5186851849955538e+001 1.6735979163174659e+000 0 3 2
1249 121 9 8.4900000000000003e-002 -1.2287299862260208e+000 -5.2153512759865500e+001 9.7129361646030681e+000 0 -2 -2
1248 121 13 2.0000000000000000e-002 -1.6699318680462891e+000 -5.2192455609125581e+001 8.3767953744911772e+000 0 -2 -2
2484 241 13 2.0000000000000000e-002 -3.1222187695617731e-001 -5.2072705746710653e+001 -2.7807238151771920e+000 0 -3 -1
2435 235 9 8.4900000000000003e-002 -5.5811585311059755e+000 -5.5579398308309095e+001 6.8912940195413119e+000 1 -3 -2
10334 1002 18 -4.2830000000000000e-002 3.0735455231088260e+001 -1.4429833616954502e+001 -9.6934154969503483e-001 0 3 2
2432 234 12 3.2989999999999998e-002 -6.8272003131980705e+000 -5.4089523647607209e+001 5.9078512061657236e+000 1 -3 -2
2431 234 12 3.2989999999999998e-002 -5.1626765816336366e+000 -5.4168847733045084e+001 5.3074127815230288e+000 1 -3 -2
9174 886 12 3.2989999999999998e-002 3.7844447432217343e+001 -1.6187761952904065e+001 6.9553127518498608e+000 0 3 2
2430 234 11 -4.1939999999999998e-003 -5.7748571843453345e+000 -5.4148627634464717e+001 6.2195109043295025e+000 1 -3 -2
5080 490 11 -4.1939999999999998e-003 -7.9578765557432787e+000 -5.2988201622541482e+001 1.3590325192586027e+001 0 -2 -2
9892 961 2 -4.2830000000000000e-002 -6.1426009918426336e+000 -5.0992480534771971e+001 -1.4486982887862667e+000 0 -2 -1
5071 489 9 8.4900000000000003e-002 -7.0493438964893214e+000 -5.4267413953869486e+001 1.3818032412885966e+001 0 -2 -2
1751 165 12 3.2989999999999998e-002 3.8271171433784467e+001 -2.7891425197754852e+001 1.5298175705263619e+001 0 4 1
3751 362 13 2.0000000000000000e-002 2.8142114874990565e+000 -5.2031536523038191e+001 1.2447922368337384e+001 0 -3 -2
9173 886 12 3.2989999999999998e-002 3.6339158290127656e+001 -1.5983771417891864e+001 6.0705621995710262e+000 0 3 2
6661 643 15 -2.3669999999999999e-001 3.4559652842922070e+001 -1.4644838082379486e+001 9.7207577302200132e+000 0 3 1
9889 961 13 2.0000000000000000e-002 -7.7201289880318669e+000 -5.0133359084379364e+001 3.2268594597110123e-002 0 -2 -1
11552 1121 18 -4.1939999999999998e-003 3.1571851269880209e+001 -1.4385848347265823e+001 1.4917377467624529e-001 0 3 2
9170 886 9 8.4900000000000003e-002 3.7853326670011825e+001 -1.4704343217210083e+001 5.3513613221057685e+000 0 3 2
11551 1121 15 -2.3669999999999999e-001 3.3220978203087114e+001 -1.4317287208986867e+001 2.3074651014039853e+000 0 3 2
6296 607 12 3.2989999999999998e-002 7.7271431646811637e+000 -4.8602194654042961e+001 6.4202586069933005e+000 0 -3 -1
6297 607 12 3.2989999999999998e-002 6.9602442434220846e+000 -4.8655625810425789e+001 8.0182509091408214e+000 0 -3 -1
6295 607 11 -4.1939999999999998e-003 7.9315893257020242e+000 -4.8647344932075356e+001 7.5004049703369553e+000 0 -3 -1
7587 735 11 -4.1939999999999998e-003 1.9413534749579442e+000 -4.7607229891301337e+001 1.8759783477987879e-001 0 -3 -1
7588 735 12 3.2989999999999998e-002 2.6564978379973718e+000 -4.7571718555923262e+001 -6.4430295862459974e-001 0 -3 -1
7589 735 12 3.2989999999999998e-002 9.3289875794786004e-001 -4.7631493949441165e+001 -2.4617661245531289e-001 0 -3 -1
8013 777 11 -4.1939999999999998e-003 3.5468755619245876e+001 -1.5330792420735259e+001 -1.3556883362125418e+000 0 2 2
1239 121 15 -2.3669999999999999e-001 -2.2422377241806872e+000 -4.8628915084238677e+001 7.7905462628350985e+000 0 -2 -2
1245 121 3 -3.2719999999999999e-001 -1.9291066211784400e+000 -5.0968607007780761e+001 7.7185455927007887e+000 0 -2 -2
2481 241 3 -3.2719999999999999e-001 -6.7930646770361025e-001 -5.0841009998252801e+001 -2.2060350183735307e+000 0 -3 -1
3748 362 18 -4.1939999999999998e-003 1.5950497763343430e+000 -5.0755430029951718e+001 1.4160421951661801e+001 0 -3 -2
1246 121 2 -4.2830000000000000e-002 -1.1912666564569927e+000 -5.0893313386028844e+001 1.0376961262860972e+001 0 -2 -2
2482 241 18 -4.2830000000000000e-002 8.2871346618105235e-001 -5.0761265812443341e+001 1.5329622517941857e+001 0 -3 -2
3747 362 15 -2.3669999999999999e-001 3.0869801318633767e+000 -5.0817317459258611e+001 1.1896075426677999e+001 0 -3 -2
171 15 11 -4.1939999999999998e-003 -7.1014563287301424e-001 -4.6938946512188096e+001 3.7897123991275805e+000 0 -3 -2
173 15 12 3.2989999999999998e-002 3.6407599618992709e-001 -4.7010525819888578e+001 3.5609985103129946e+000 0 -3 -2
1243 121 14 4.0000000000000001e-002 -1.5223719833183640e+000 -4.9659624969426460e+001 9.7540260609018077e+000 0 -2 -2
1242 121 13 2.0000000000000000e-002 -1.8900178174818232e+000 -4.9781885306675761e+001 8.4009312161353016e+000 0 -2 -2
172 15 12 3.2989999999999998e-002 -8.0463894634221134e-001 -4.7009338189295562e+001 4.8840398520434407e+000 0 -3 -2
2478 241 13 2.0000000000000000e-002 -3.1747426856133115e-001 -4.9653517606701499e+001 -2.7834866996197576e+000 0 -3 -1
9890 961 14 4.0000000000000001e-002 -6.6844156446545435e+000 -4.9796749397133112e+001 -8.6209056363515946e-001 0 -2 -1
11203 1084 14 4.0000000000000001e-002 2.6815960953788975e+000 -4.7038210763035352e+001 6.4367504689460464e+000 0 -3 -1
11202 1084 13 2.0000000000000000e-002 4.0517806940234822e+000 -4.7037639980737438e+001 6.1182570808789674e+000 0 -3 -1
2428 234 9 8.4900000000000003e-002 -5.4607347006855065e+000 -5.2761000870645489e+001 6.9333695079633699e+000 1 -3 -2
2969 284 9 8.4900000000000003e-002 3.0725691015185028e+001 -1.6059278519481147e+001 6.9093117457712152e+000 0 2 1
5488 530 1 -1.9810000000000000e-001 2.6728226493361909e+001 -1.6902635591076827e+001 9.0750892050735210e+000 0 3 1
5078 490 9 8.4900000000000003e-002 -7.3406089954495526e+000 -5.1536946498651908e+001 1.3415184492442959e+001 0 -2 -2
3744 362 13 2.0000000000000000e-002 2.7071873582060073e+000 -4.9593089233656343e+001 1.2372635789494321e+001 0 -3 -2
2479 241 14 4.0000000000000001e-002 4.5530010185515557e-001 -4.9500321052831815e+001 1.5872172220054942e+001 0 -3 -2
3745 362 9 8.4900000000000003e-002 1.9411949843434055e+000 -4.9511035470267728e+001 1.3558211170888246e+001 0 -3 -2
9989 965 11 -4.1939999999999998e-003 -6.2008468923341535e+000 -4.8295694104339326e+001 -1.1631859321282512e+000 0 -2 -1
9990 965 12 3.2989999999999998e-002 -5.1292210167933465e+000 -4.8288048031013908e+001 -9.1396988780701627e-001 0 -2 -1
9991 965 12 3.2989999999999998e-002 -6.2810706291432590e+000 -4.8189646947582830e+001 -2.2553892970346774e+000 0 -2 -1
5497 531 9 8.4900000000000003e-002 2.9646316701799311e+001 -1.4646132751727691e+001 1.2183295261368507e+001 0 3 1
2423 233 11 -4.1939999999999998e-003 -5.5590621108000002e+000 -5.1356799057113939e+001 6.1899392991689020e+000 1 -3 -2
2424 233 12 3.2989999999999998e-002 -4.7788456305444269e+000 -5.1376863081857046e+001 5.4149527856138278e+000 1 -3 -2
2425 233 12 3.2989999999999998e-002 -6.5330920631564462e+000 -5.1349262101033140e+001 5.6788408480556427e+000 1 -3 -2
3741 362 3 -3.2719999999999999e-001 2.9700277421142283e+000 -4.8442661560381175e+001 1.1606317676319430e+001 0 -3 -2
5087 491 11 -4.1939999999999998e-003 -8.2030591173153837e+000 -5.0207043830255692e+001 1.3361569655156782e+001 0 -2 -2
7610 738 12 3.2989999999999998e-002 6.3492676168289297e-001 -5.6003270112291922e+001 1.9489417864449571e-001 0 -3 -1
8854 860 13 2.0000000000000000e-002 7.2904049911105266e+000 -4.7992001279640327e+001 1.3945907109391031e+001 0 0 -1
5490 530 9 8.4900000000000003e-002 2.9529385449443669e+001 -1.7463588513176038e+001 1.2243580587628516e+001 0 3 1
6665 644 13 2.0000000000000000e-002 3.4048207217186331e+001 -1.5920378570026008e+001 9.3776256821617370e+000 0 3 1
340 30 9 8.4900000000000003e-002 7.5961648508623210e+000 -4.7191171115091294e+001 -7.5798129257049462e-001 0 1 -1
11555 1121 13 2.0000000000000000e-002 3.2910144316160590e+001 -1.5565676654476675e+001 1.8410811709017663e+000 0 3 2
511 45 9 8.4900000000000003e-002 2.5766198657345488e+001 -2.7046140533253634e+001 6.7307584090818970e+000 0 2 0
7585 735 9 8.4900000000000003e-002 2.0514856772003482e+000 -4.6214205478789076e+001 9.4575389605529325e-001 0 -3 -1
2475 241 15 -2.3669999999999999e-001 -7.3202600928692230e-001 -4.8523565714476717e+001 -2.1885151587368106e+000 0 -3 -1
1240 121 2 -4.2830000000000000e-002 -1.5576798472773776e+000 -4.8358734804267129e+001 1.0366869013090250e+001 0 -2 -2
11200 1084 2 -4.2830000000000000e-002 2.0407452987693979e+000 -4.5764907837533364e+001 6.4654448283543795e+000 0 -3 -1
11199 1084 15 -2.3669999999999999e-001 4.6472371983255352e+000 -4.5806232422803539e+001 5.9248791206693667e+000 0 -3 -1
169 15 9 8.4900000000000003e-002 -1.1368376385705843e+000 -4.5415747322986931e+001 3.4272101177062324e+000 0 -3 -2
8014 777 12 3.2989999999999998e-002 3.5880117329069265e+001 -1.5286633183389467e+001 -3.3713834957349276e-001 0 2 2
2476 241 18 -4.2830000000000000e-002 8.0069681744111498e-001 -4.8196305666970993e+001 1.5329944730635392e+001 0 -3 -2
3742 362 18 -4.2830000000000000e-002 1.5898833303253341e+000 -4.8230034438859953e+001 1.4114692387276815e+001 0 -3 -2
2473 241 13 2.0000000000000000e-002 -4.5939692190687070e-001 -4.7290155856100434e+001 -2.6508481108346929e+000 0 -3 -1
9987 965 9 8.4900000000000003e-002 -6.7797520600102468e+000 -4.6918671767703422e+001 -5.8640530140452474e-001 0 -2 -1
2965 284 3 -3.2719999999999999e-001 2.9008293085896511e+001 -1.4789588275039872e+001 5.6516857518617893e+000 0 2 1
3739 362 14 4.0000000000000001e-002 2.0666470078396770e+000 -4.7090820807452729e+001 1.3370502116562935e+001 0 -3 -2
5501 531 12 3.2989999999999998e-002 3.0837358281985740e+001 -1.6136365384931874e+001 1.1131651325998474e+001 0 3 1
9161 885 1 -1.9810000000000000e-001 3.6640803290727845e+001 -1.6455764626846225e+001 1.8669410735763805e+000 0 3 2
2421 233 9 8.4900000000000003e-002 -5.4409932841837305e+000 -4.9937908948441098e+001 6.9033206150858080e+000 1 -3 -2
2474 241 14 4.0000000000000001e-002 3.0193964114132044e-001 -4.7012776736807616e+001 1.6029791437009003e+001 0 -3 -2
8016 778 1 -1.9810000000000000e-001 3.4057760870188957e+001 -1.6696336802828363e+001 1.4512317748510318e+001 0 2 1
1238 121 14 4.0000000000000001e-002 -1.9452556997651205e+000 -4.7141181622652581e+001 9.7161568701399315e+000 0 -2 -2
2470 240 11 -4.1939999999999998e-003 -5.4766910866826715e+000 -4.8579495040828256e+001 6.0768989536034201e+000 1 -3 -2
2472 240 12 3.2989999999999998e-002 -6.3688200532487622e+000 -4.8660161409527710e+001 5.4384152615067345e+000 1 -3 -2
3738 362 13 2.0000000000000000e-002 2.7201704512330576e+000 -4.7209390588204599e+001 1.2122119968477719e+001 0 -3 -2
1237 121 13 2.0000000000000000e-002 -2.2922377425150358e+000 -4.7406246034985209e+001 8.3760704427358590e+000 0 -2 -2
5085 491 9 8.4900000000000003e-002 -7.6211707461240579e+000 -4.8801605627739001e+001 1.2899493104391583e+001 0 -2 -2
2471 240 12 3.2989999999999998e-002 -4.5929623646797806e+000 -4.8621691276309413e+001 5.4216125346405928e+000 1 -3 -2
4136 401 2 -4.2830000000000000e-002 3.9893592311050348e+001 -1.3878812740198537e+001 2.2371196643487403e+000 0 3 2
5094 492 11 -4.1939999999999998e-003 -8.3576903317970732e+000 -4.7449227465344514e+001 1.3270692085454021e+001 0 -2 -2
9172 886 11 -4.1939999999999998e-003 3.7423582119314098e+001 -1.6125647250790308e+001 5.9407475906070690e+000 0 3 2
5096 492 12 3.2989999999999998e-002 -8.0704625944969148e+000 -4.7193745111739524e+001 1.4301829718312055e+001 0 -2 -2
6662 643 18 -4.2830000000000000e-002 3.2381778823923177e+001 -1.4759148886135698e+001 8.1051168384859267e+000 0 3 1
1773 169 1 -1.9810000000000000e-001 3.9984992558560677e+001 -1.6104854813557520e+001 9.8275588203826523e+000 0 4 1
4141 401 15 -2.3669999999999999e-001 4.0122102226152776e+001 -1.6634141206324781e+001 -1.9257597968651227e-001 0 3 2
5141 499 9 8.4900000000000003e-002 -8.1917892265812249e+000 -4.3358911939837498e+001 1.2414034027003083e+001 0 -3 -2
8745 844 15 -2.3669999999999999e-001 6.8758998232080746e+000 -4.6656000917188400e+001 1.3914093207433110e+001 0 0 -1
6304 608 12 3.2989999999999998e-002 7.0046057187578663e+000 -4.5802592997122375e+001 7.9060307828271004e+000 0 -3 -1
8743 844 13 2.0000000000000000e-002 7.6444213697773309e+000 -4.5585833739988956e+001 1.4213945226021377e+001 0 0 -1
349 31 11 -4.1939999999999998e-003 8.2432679505380104e+000 -4.5717086929596533e+001 -9.0921695442940653e-001 0 1 -1
6302 608 11 -4.1939999999999998e-003 8.0428790084322017e+000 -4.5824742754905571e+001 7.5422984924196186e+000 0 -3 -1
4142 401 2 -4.2830000000000000e-002 3.9645747799486102e+001 -1.6363061737478610e+001 2.4402520291627630e+000 0 3 2
10333 1002 3 -3.2719999999999999e-001 2.9102079495748701e+001 -1.4504630037243855e+001 1.6640282883359827e+001 0 3 1
7581 734 12 3.2989999999999998e-002 2.8435746952218262e+000 -4.4764301778351573e+001 -4.4838557727042333e-001 0 -3 -1
6309 609 11 -4.1939999999999998e-003 8.1799221562218296e+000 -4.3027034711381503e+001 7.7258274878338211e+000 0 -3 -1
6311 609 12 3.2989999999999998e-002 7.1438125761944162e+000 -4.2984104153802782e+001 8.0954934878367624e+000 0 -3 -1
8739 844 15 -2.3669999999999999e-001 7.1899718333139475e+000 -4.4305249625280666e+001 1.4133262096196303e+001 0 0 -1
1775 169 9 8.4900000000000003e-002 3.8883238791693849e+001 -1.5297787696231238e+001 1.3769039459617998e+001 0 4 1
2966 284 18 -4.2830000000000000e-002 3.1252956713224556e+001 -1.4796263201953066e+001 7.2721689687531361e+000 0 2 1
347 31 9 8.4900000000000003e-002 7.4592815378409787e+000 -4.4306413719525352e+001 -8.2273228434970758e-001 0 1 -1
356 32 11 -4.1939999999999998e-003 8.0231806093250100e+000 -4.2802757069682791e+001 -1.0025258033084519e+000 0 1 -1
9168 886 1 -1.9810000000000000e-001 4.2293945958129136e+001 -1.4061897289605517e+001 4.9685569054491872e+000 0 3 2
11193 1083 15 -2.3669999999999999e-001 4.7135508815942195e+000 -4.3277429908025681e+001 5.8226752722991746e+000 0 -3 -1
7578 734 9 8.4900000000000003e-002 1.8637402381264523e+000 -4.3409736034920947e+001 9.4648859294003518e-001 0 -3 -1
11198 1084 14 4.0000000000000001e-002 2.6956875223630972e+000 -4.4519000278275676e+001 6.2348011137941013e+000 0 -3 -1
3270 316 12 3.2989999999999998e-002 4.2935251217018617e+001 -2.7677210222895447e+001 3.2845265848695004e+000 0 2 2
7582 734 12 3.2989999999999998e-002 1.0738724695081978e+000 -4.4868998065565734e+001 -4.5133801537371326e-001 0 -3 -1
7580 734 11 -4.1939999999999998e-003 1.9574045414274477e+000 -4.4812766519753310e+001 2.0094657339594607e-001 0 -3 -1
7573 733 11 -4.1939999999999998e-003 1.8339094736246859e+000 -4.2018629323777056e+001 1.7700274600563415e-001 0 -3 -1
11197 1084 13 2.0000000000000000e-002 4.0757426261991361e+000 -4.4551290869488632e+001 5.9794241571799658e+000 0 -3 -1
7969 771 9 8.4900000000000003e-002 3.5158094498598807e+001 -2.5211599464403761e+001 -1.2038893583924453e+000 0 3 2
7575 733 12 3.2989999999999998e-002 1.0427991595910648e+000 -4.2113893131475066e+001 -5.8103610644048331e-001 0 -3 -1
11194 1083 2 -4.2830000000000000e-002 2.0776966713240639e+000 -4.3235969263283742e+001 6.2476197798407398e+000 0 -3 -1
164 14 11 -4.1939999999999998e-003 -4.5156344279481347e-001 -4.4009818215153601e+001 3.8605772278287502e+000 0 -3 -2
165 14 12 3.2989999999999998e-002 -2.9695199427805519e-001 -4.4084160650263676e+001 4.9424672838310384e+000 0 -3 -2
166 14 12 3.2989999999999998e-002 5.5159809574797469e-001 -4.4029601511730036e+001 3.4101836838262694e+000 0 -3 -2
5145 499 12 3.2989999999999998e-002 -7.2498240862833843e+000 -4.4882854881510738e+001 1.1182019530520170e+001 0 -3 -2
3735 362 15 -2.3669999999999999e-001 3.0610491715389019e+000 -4.6076695981724598e+001 1.1415633947875575e+001 0 -3 -2
8736 844 13 2.0000000000000000e-002 7.9013605402065661e+000 -4.3184097781761537e+001 1.4426185391724891e+001 0 0 -1
8015 777 12 3.2989999999999998e-002 3.6320595897003848e+001 -1.5324796190435771e+001 -2.0524463792153265e+000 0 2 2
11453 1108 12 3.2989999999999998e-002 2.4846157482001704e+001 -1.8453513709562799e+001 -2.3051685084675309e+000 0 2 1
9998 966 12 3.2989999999999998e-002 -6.1187990785102553e+000 -4.5419511069881636e+001 -2.0141443147504465e+000 0 -2 -1
9997 966 12 3.2989999999999998e-002 -5.1547904155010587e+000 -4.5471976885120277e+001 -5.3876587675035859e-001 0 -2 -1