LAMMPS data file via write_data, version 11 Aug 2017, timestep = 0

7824 atoms
18 atom types
9593 bonds
18 bond types
19706 angles
39 angle types
31106 dihedrals
62 dihedral types
7651 impropers
9 improper types

-4.1584398713100370e+000 9.0158441871294443e+001 xlo xhi
-5.2333323499350158e+001 2.4733324499350161e+001 ylo yhi
-2.1303397413144669e+000 1.5930339741313135e+001 zlo zhi

Masses

1 14.0067
2 12.011
3 14.0067
4 15.9994
5 1.008
6 1.008
7 15.9994
8 12.011
9 12.011
10 1.008
11 12.011
12 1.008
13 12.011
14 12.011
15 14.0067
16 15.9994
17 14.0067
18 12.011


Bond Coeffs # harmonic

1 1365.78 1.155
2 398.26 1.093
3 1024.04 1.2
4 500.95 1.374
5 362.01 1.1
6 362.01 1.1
7 509.51 1.359
8 591.76 0.965
9 517.41 1.528
10 497.83 1.459
11 362.01 1.1
12 705.27 1.398
13 362.01 1.1
14 705.27 1.398
15 634.85 1.335
16 398.26 1.093
17 634.85 1.335
18 867.4 1.238

Angle Coeffs # harmonic

1 50 180
2 50 104.51
3 50 109.471
4 50 109.471
5 50 109.471
6 50 120
7 50 120
8 50 120
9 50 120
10 50 120
11 50 120
12 50 120
13 50 120
14 50 109.471
15 50 109.471
16 50 120
17 50 109.471
18 50 109.471
19 50 109.471
20 50 120
21 50 109.471
22 50 109.471
23 50 120
24 50 109.471
25 50 109.471
26 50 109.471
27 50 120
28 50 106.7
29 50 109.471
30 50 109.471
31 50 109.471
32 50 120
33 50 109.471
34 50 109.471
35 50 106.7
36 50 120
37 50 120
38 50 120
39 50 120

Dihedral Coeffs # harmonic

1 0 1 1
2 0 1 1
3 1 1 3
4 1 1 3
5 1 1 3
6 0.5 -1 6
7 12.5 -1 2
8 12.5 -1 2
9 0.5 -1 6
10 0.5 -1 6
11 0.5 -1 6
12 12.5 -1 2
13 12.5 -1 2
14 1 1 3
15 1 1 3
16 1 1 3
17 1 1 3
18 12.5 -1 2
19 12.5 -1 2
20 12.5 -1 2
21 0.5 -1 6
22 0.5 -1 6
23 12.5 -1 2
24 12.5 -1 2
25 12.5 -1 2
26 1 1 3
27 1 1 3
28 1 1 3
29 12.5 -1 2
30 12.5 -1 2
31 0.5 -1 6
32 0.5 -1 6
33 12.5 -1 2
34 1 1 3
35 0.5 -1 6
36 0.5 -1 6
37 1 1 3
38 1 1 3
39 1 1 3
40 1 1 3
41 1 1 3
42 1 1 3
43 1 1 3
44 0.5 -1 6
45 0.5 -1 6
46 0.5 -1 6
47 1 1 3
48 0.5 -1 6
49 0.5 -1 6
50 1 1 3
51 1 1 3
52 1 -1 2
53 0.5 -1 6
54 0.5 -1 6
55 0.5 -1 6
56 12.5 -1 2
57 12.5 -1 2
58 12.5 -1 2
59 12.5 -1 2
60 12.5 -1 2
61 12.5 -1 2
62 12.5 -1 2

Improper Coeffs # umbrella

1 20 0
2 20 0
3 20 0
4 20 0
5 20 0
6 20 0
7 20 0
8 20 0
9 20 0

Atoms # full

2402 230 11 -4.1939999999999998e-003 -2.8552483256055945e+000 -5.0172444540338184e+001 1.1004264043415809e+001 1 -8 -5
2393 229 9 8.4900000000000003e-002 -1.8159931399538518e+000 -5.1636006704689621e+001 1.1110767256339441e+001 1 -8 -5
10085 979 9 8.4900000000000003e-002 -3.9834763310334744e+000 -4.5874549109526725e+001 2.4073532736102239e+000 0 -7 -4
11149 1082 13 2.0000000000000000e-002 -6.1324736263954627e-002 -4.8842817811455326e+001 7.8888542703251385e+000 0 -7 -4
10089 979 12 3.2989999999999998e-002 -3.0859688345703473e+000 -4.6869559759834566e+001 4.4929828990461163e-001 0 -7 -4
2400 230 9 8.4900000000000003e-002 -2.7414387902894575e+000 -4.8639295395521138e+001 1.1857943737441913e+001 1 -8 -5
2407 231 9 8.4900000000000003e-002 -2.3156104819119392e+000 -4.5913110008718348e+001 1.2958728364799995e+001 1 -8 -5
2403 230 12 3.2989999999999998e-002 -1.4709901688507996e+000 -5.0057963224576518e+001 9.8651131230434039e+000 1 -8 -5
10040 972 12 3.2989999999999998e-002 -2.8197544666319176e+000 -4.9426229441950206e+001 4.0995503863268690e-001 0 -6 -4
11143 1081 13 2.0000000000000000e-002 -7.0655853701817461e-001 -4.6984690108789792e+001 8.3478597326676454e+000 0 -7 -4
10036 972 9 8.4900000000000003e-002 -3.5433439275990191e+000 -4.8671238790957567e+001 2.3514228116987628e+000 0 -6 -4
11144 1081 14 4.0000000000000001e-002 -2.9681821413669782e+000 -4.7110280625196381e+001 7.5739000446993252e+000 0 -7 -4
11146 1081 18 -4.2830000000000000e-002 -3.8913849711707802e+000 -4.8169940906426440e+001 7.0842666911180512e+000 0 -7 -4
11145 1081 15 -2.3669999999999999e-001 7.1481807414134657e-001 -4.7837759997509295e+001 8.6278113828714318e+000 0 -7 -4
11150 1082 14 4.0000000000000001e-002 -2.3084519098604241e+000 -4.9032660530640982e+001 7.0598757279198168e+000 0 -7 -4
5099 493 9 8.4900000000000003e-002 9.4120503010246015e-001 -4.7449738607906696e+001 -2.0666224790536898e+000 0 -7 -4
10039 972 12 3.2989999999999998e-002 -3.0507314797825567e+000 -5.0394264954734084e+001 2.7141901731351101e+000 0 -6 -4
2410 231 12 3.2989999999999998e-002 -1.7000410392764067e+000 -4.7174438718489135e+001 1.2413874291181688e+001 1 -8 -5
1363 129 9 8.4900000000000003e-002 2.4646043670546387e+000 -4.7632989291942430e+001 1.1988212792598354e+001 0 -6 -5
2409 231 13 2.0000000000000000e-002 -3.4383606803586559e+000 -4.7232615814572078e+001 1.3117641795871267e+001 1 -8 -5
7484 723 14 4.0000000000000001e-002 1.5462838500487983e+000 -4.7700761715222619e+001 4.6050908904303745e+000 0 -7 -4
9828 952 1 -1.9810000000000000e-001 -2.8262676171017387e+000 -4.9493733933258902e+001 1.5189589292821433e+001 1 -5 -5
368 34 9 8.4900000000000003e-002 8.1446056046693229e+000 -4.9739964591642646e+001 4.0362030945098946e+000 0 -4 -4
10082 978 12 3.2989999999999998e-002 -2.9535355342374112e+000 -4.4315165722581582e+001 3.8287893125828250e+000 0 -7 -4
11139 1081 15 -2.3669999999999999e-001 2.7391771287088140e-001 -4.6013949816933277e+001 8.9063906330193507e+000 0 -7 -4
11137 1081 9 8.4900000000000003e-002 -3.1988831299174691e+000 -4.5168755558540767e+001 7.5485401584426093e+000 0 -7 -4
7483 723 13 2.0000000000000000e-002 4.7586475787772820e-001 -4.7176159345475597e+001 2.6657866320710557e+000 0 -7 -4
7480 723 13 2.0000000000000000e-002 2.7489643362021265e+000 -4.6581552658696545e+001 5.6266192824710100e+000 0 -7 -4
6359 616 12 3.2989999999999998e-002 3.6746990299287949e+000 -4.6061666143387889e+001 8.7069178083371934e+000 0 -8 -4
11136 1081 13 2.0000000000000000e-002 -9.1609664163518811e-001 -4.5100387482097823e+001 8.3541744291647344e+000 0 -7 -4
11133 1081 3 -3.2719999999999999e-001 1.1256539085574069e-001 -4.4189616353086784e+001 9.3300764565522467e+000 0 -7 -4
1374 130 12 3.2989999999999998e-002 3.5592898251169318e+000 -4.6127232546893609e+001 1.1825487260129702e+001 0 -6 -5
5149 500 12 3.2989999999999998e-002 2.5167827323441205e-001 -4.6314841605164723e+001 -1.3051333875530857e+000 0 -7 -4
5150 500 12 3.2989999999999998e-002 2.8443805515913132e+000 -4.5679093722755638e+001 -1.5601949122171463e+000 0 -7 -4
1373 130 12 3.2989999999999998e-002 8.5310757575634444e-001 -4.6772099386217832e+001 1.2327677849629815e+001 0 -6 -5
5148 500 13 2.0000000000000000e-002 1.4861654811686114e+000 -4.6051238686293459e+001 1.5379104225969558e+001 0 -7 -5
1372 130 13 2.0000000000000000e-002 2.3064751600319324e+000 -4.6369918953917860e+001 1.3170589712542581e+001 0 -6 -5
7479 723 15 -2.3669999999999999e-001 5.0171924336978257e-002 -4.5976200710431556e+001 2.4664771531681673e+000 0 -7 -4
7477 723 9 8.4900000000000003e-002 2.3874371470540057e+000 -4.5261201417250163e+001 5.3547803174731996e+000 0 -7 -4
6356 616 9 8.4900000000000003e-002 6.0444494004441314e+000 -4.5525903946524267e+001 8.2292235983648023e+000 0 -8 -4
6360 616 12 3.2989999999999998e-002 5.8536933784028093e+000 -4.6998302366336205e+001 8.5199171192260614e+000 0 -8 -4
6358 616 13 2.0000000000000000e-002 4.5482020090951796e+000 -4.6563190816432197e+001 7.3888337936657518e+000 0 -8 -4
1380 131 12 3.2989999999999998e-002 3.3355639650194391e+000 -4.3571380011451197e+001 1.1288329908837181e+001 0 -6 -5
5147 500 14 4.0000000000000001e-002 1.2138354517769416e+000 -4.4630707023671079e+001 -1.9298297255010743e+000 0 -7 -4
1370 130 9 8.4900000000000003e-002 2.8098261470495585e+000 -4.5122630480294006e+001 1.2087711709914869e+001 0 -6 -5
11130 1081 13 2.0000000000000000e-002 -8.9847908255005660e-001 -4.3257353675142355e+001 8.4700391003746436e+000 0 -7 -4
11131 1081 14 4.0000000000000001e-002 -3.1564605666694447e+000 -4.3191463516966543e+001 7.5335038257804587e+000 0 -7 -4
1379 131 13 2.0000000000000000e-002 2.6524453539703803e+000 -4.3811378862562812e+001 1.2996508739099234e+001 0 -6 -5
1381 131 12 3.2989999999999998e-002 4.2346786117020585e+000 -4.4173949494920294e+001 1.3693558462076966e+001 0 -6 -5
5146 500 13 2.0000000000000000e-002 -3.8342193459508067e-002 -4.4213916889061792e+001 -3.0785318417338114e-002 0 -7 -4
7474 723 13 2.0000000000000000e-002 3.3698714042953331e+000 -4.4101919495285479e+001 6.2002500276931372e+000 0 -7 -4
7473 723 3 -3.2719999999999999e-001 -9.2698534172913405e-002 -4.3746142117014791e+001 3.9143121031405146e+000 0 -7 -4
2608 250 13 2.0000000000000000e-002 7.3565553087555831e+000 -4.5966810919260986e+001 -1.8361739274693014e+000 0 -7 -4
7476 723 13 2.0000000000000000e-002 6.9761378895458837e-001 -4.4976834901072998e+001 3.7474038676341292e+000 0 -7 -4
6353 615 12 3.2989999999999998e-002 3.9896566457278499e+000 -4.4517305646431545e+001 9.1134707509856412e+000 0 -8 -4
2609 250 12 3.2989999999999998e-002 7.9697216061771972e+000 -4.6110926593258036e+001 -1.1547485662956181e-001 0 -7 -4
6352 615 12 3.2989999999999998e-002 6.6013291390206064e+000 -4.4035034228858073e+001 8.9287017945895570e+000 0 -8 -4
6351 615 13 2.0000000000000000e-002 5.1825559190408530e+000 -4.4281904265112914e+001 7.7531311822477953e+000 0 -8 -4
3811 365 12 3.2989999999999998e-002 8.7259870576017278e+000 -4.7013151119774548e+001 1.3923896084319152e+001 0 -7 -5
3810 365 12 3.2989999999999998e-002 6.4778902336247803e+000 -4.6389523659260533e+001 1.2283598112025290e+001 0 -7 -5
3809 365 13 2.0000000000000000e-002 7.1209930761426445e+000 -4.6505335174993348e+001 1.4059184345107182e+001 0 -7 -5
2610 250 12 3.2989999999999998e-002 5.6417349569197039e+000 -4.5572461415699692e+001 -1.5825406359292267e+000 0 -7 -4
412 40 12 3.2989999999999998e-002 5.2724840711119025e+000 -4.5961621788950680e+001 1.7997079919394356e+000 0 -4 -4
410 40 11 -4.1939999999999998e-003 6.7051975279897551e+000 -4.5710088426686312e+001 3.0126882985596461e+000 0 -4 -4
411 40 12 3.2989999999999998e-002 8.3949881673830955e+000 -4.5697881097276081e+001 2.2513760426087828e+000 0 -4 -4
3817 366 12 3.2989999999999998e-002 9.1435990321563398e+000 -4.4216844129028594e+001 1.3572199132987516e+001 0 -7 -5
5036 484 14 4.0000000000000001e-002 1.4153922078178196e+000 -4.2200722988059020e+001 1.5871875406468094e+001 0 -9 -5
5037 484 15 -2.3669999999999999e-001 -3.4749885391846425e-001 -4.3043794471140529e+001 6.5907178872577576e-001 0 -7 -4
5038 484 13 2.0000000000000000e-002 1.7278823326271491e+000 -4.3462846560514116e+001 1.5131032975645299e+001 0 -7 -5
1377 131 9 8.4900000000000003e-002 2.9289550146924004e+000 -4.2583641860930953e+001 1.1796848177025835e+001 0 -6 -5
5035 484 13 2.0000000000000000e-002 3.2695062834342892e-001 -4.1977537029285884e+001 -8.7088501728036505e-002 0 -7 -4
3818 366 12 3.2989999999999998e-002 7.4190646180653772e+000 -4.3410908237131963e+001 1.1821392204820043e+001 0 -7 -5
2615 251 13 2.0000000000000000e-002 7.2287741939526153e+000 -4.3227444006955373e+001 1.5882445331461300e+001 0 -7 -5
7470 723 13 2.0000000000000000e-002 9.2082793639258842e-001 -4.2663321868499317e+001 4.5678129842766184e+000 0 -7 -4
7471 723 14 4.0000000000000001e-002 2.9005344484543203e+000 -4.2831226786831621e+001 5.8954977320215729e+000 0 -7 -4
2616 251 12 3.2989999999999998e-002 5.5132964428981133e+000 -4.2812476877628384e+001 1.5679617132679143e+001 0 -7 -5
6349 615 9 8.4900000000000003e-002 6.2380024972847714e+000 -4.3060164193084759e+001 8.4679566147200021e+000 0 -8 -4
6345 614 12 3.2989999999999998e-002 7.2374311011054129e+000 -4.2190036313304923e+001 8.9642782523945446e+000 0 -8 -4
3816 366 13 2.0000000000000000e-002 7.6258441869457769e+000 -4.3646299697953744e+001 1.3634949826071944e+001 0 -7 -5
2606 250 9 8.4900000000000003e-002 7.3794984292199111e+000 -4.4569387548930500e+001 -1.1241020870946430e+000 0 -7 -4
3807 365 9 8.4900000000000003e-002 7.3565884176811345e+000 -4.5112173209121167e+001 1.2905926608748690e+001 0 -7 -5
10161 983 13 2.0000000000000000e-002 1.0224976971235431e+001 -4.4333788084616444e+001 8.5349405818334372e+000 0 -4 -3
10162 983 14 4.0000000000000001e-002 9.9578959336875457e+000 -4.4560814788017382e+001 6.1585198465588959e+000 0 -4 -3
409 40 14 4.0000000000000001e-002 6.3617315161237684e+000 -4.4260540589354299e+001 2.9848211104813513e+000 0 -4 -4
408 40 13 2.0000000000000000e-002 4.4057213754419084e+000 -4.3847755384731677e+001 1.7038126390208999e+000 0 -4 -4
10163 983 15 -2.3669999999999999e-001 1.0015181781616599e+001 -4.5343194911079330e+001 9.8703137021825995e+000 0 -4 -3
10164 983 18 -4.2830000000000000e-002 1.0543217911364197e+001 -4.5869416581481183e+001 5.7373363363389238e+000 0 -4 -3
8677 842 13 2.0000000000000000e-002 1.1923583657816931e+001 -4.5938868624555596e+001 -3.0842270207718747e-001 0 -4 -3
8680 842 18 -4.2830000000000000e-002 1.1305031534840326e+001 -4.6477444558486773e+001 3.6642770059222887e+000 0 -4 -3
8678 842 14 4.0000000000000001e-002 1.1868839719156263e+001 -4.5640852131802205e+001 1.9993580362596948e+000 0 -4 -3
7788 754 12 3.2989999999999998e-002 1.5275874266651801e+001 -4.7517466390270236e+001 5.2148261093649220e+000 0 -1 0
2617 251 12 3.2989999999999998e-002 7.3513882843413096e+000 -4.3433573283113766e+001 -3.3168913976932513e-001 0 -7 -4
8673 841 15 -2.3669999999999999e-001 1.1620023637938665e+001 -4.4937848119429759e+001 -1.6839670375770712e+000 0 -4 -3
6346 614 12 3.2989999999999998e-002 5.1700131972990828e+000 -4.1381367012347326e+001 9.7550880885903606e+000 0 -8 -4
7467 723 15 -2.3669999999999999e-001 3.7147259255794030e-001 -4.1453827110678134e+001 4.3601585317700939e+000 0 -7 -4
7468 723 13 2.0000000000000000e-002 3.8067726275766081e+000 -4.1682542696065219e+001 6.7595946224736423e+000 0 -7 -4
2613 251 9 8.4900000000000003e-002 6.9540602252376278e+000 -4.1858388697354584e+001 -1.2494486461917045e+000 0 -7 -4
6344 614 13 2.0000000000000000e-002 5.7769994376818641e+000 -4.1721019501594398e+001 8.1692829044786244e+000 0 -8 -4
3814 366 9 8.4900000000000003e-002 8.0425742460342047e+000 -4.2223535970061896e+001 1.2759928424486681e+001 0 -7 -5
10155 983 9 8.4900000000000003e-002 9.9819173745357439e+000 -4.2131368664139409e+001 5.9337023639659527e+000 0 -4 -5
10154 983 13 2.0000000000000000e-002 1.1066308717485120e+001 -4.2080352225714698e+001 8.0530798678417455e+000 0 -4 -3
299 24 15 -2.3669999999999999e-001 3.7579489307901746e+000 -4.2675602404866709e+001 1.3673143920890949e+000 0 -4 -4
298 24 14 4.0000000000000001e-002 6.7137227464257201e+000 -4.1901395827559583e+001 3.2604124411067517e+000 0 -4 -4
300 24 18 -4.2830000000000000e-002 7.4446374969077933e+000 -4.3149967966154726e+001 3.6945779238888088e+000 0 -4 -4
8672 841 14 4.0000000000000001e-002 1.2407717481932615e+001 -4.3587562268007865e+001 1.2703913384602235e+000 0 -4 -3
8667 841 15 -2.3669999999999999e-001 1.1235923401197180e+001 -4.2798345249177153e+001 1.5906499676824216e+001 0 -4 -4
10157 983 15 -2.3669999999999999e-001 1.0804748294639877e+001 -4.3176516745309527e+001 9.1220524903854372e+000 0 -4 -3
10158 983 18 -4.1939999999999998e-003 9.2831532901522511e+000 -4.3341765872298396e+001 5.2735527164937395e+000 0 -4 -3
8671 841 13 2.0000000000000000e-002 1.1717039973666628e+001 -4.3801715216593614e+001 -9.9577096960889233e-001 0 -4 -3
7780 753 12 3.2989999999999998e-002 1.4587745855141506e+001 -4.4025571516413791e+001 6.3047712837969208e+000 0 -1 0
7779 753 13 2.0000000000000000e-002 1.3699230351972421e+001 -4.4538685879789782e+001 4.9790447083212639e+000 0 -1 0
8674 841 13 2.0000000000000000e-002 1.2624400471568080e+001 -4.4541845669528108e+001 2.7418736417918383e+000 0 -4 -3
7781 753 12 3.2989999999999998e-002 1.3604118667524851e+001 -4.5085451663994426e+001 6.5759705399846311e+000 0 -1 0
3971 383 3 -3.2719999999999999e-001 1.1969548397126157e+001 -4.5850513555257727e+001 1.3062100473211013e+001 0 0 -1
7784 754 9 8.4900000000000003e-002 1.4800312202562356e+001 -4.5866302691367601e+001 5.2606907429233827e+000 0 -1 0
1487 142 15 -2.3669999999999999e-001 1.7360885946106063e+001 -4.4560654414947521e+001 7.8253721711521571e+000 0 0 -1
3968 383 13 2.0000000000000000e-002 1.2943624310438725e+001 -4.4752125407880399e+001 1.2426764533036172e+001 0 0 -1
7777 753 9 8.4900000000000003e-002 1.4151563210541678e+001 -4.3175037852409069e+001 5.4427154080548474e+000 0 -1 0
3969 383 14 4.0000000000000001e-002 1.5268508265221836e+001 -4.4779373138575849e+001 1.1759241114214520e+001 0 0 -1
1493 143 15 -2.3669999999999999e-001 1.7298724643426262e+001 -4.6884709220285586e+001 8.0010049054364014e+000 0 0 -1
3974 383 13 2.0000000000000000e-002 1.3074955359997780e+001 -4.7005104533271641e+001 1.2937246964991958e+001 0 0 -1
3975 383 9 8.4900000000000003e-002 1.5322941880648237e+001 -4.7045448107861191e+001 1.1989571357802527e+001 0 0 -1
5343 518 12 3.2989999999999998e-002 1.5739075018657275e+001 -4.4261041625471407e+001 8.2717271550568938e-001 0 -1 0
7786 754 13 2.0000000000000000e-002 1.6094655446285930e+001 -4.6955617844185724e+001 3.8985515745305852e+000 0 -1 0
11151 1082 15 -2.3669999999999999e-001 1.4649434244023034e+000 -4.9688087388753338e+001 8.0976595626572436e+000 0 -7 -4
361 33 9 8.4900000000000003e-002 6.7513216502807030e+000 -4.6969067340248870e+001 4.4391131099636638e+000 0 -4 -4
2599 249 9 8.4900000000000003e-002 7.8918599593277197e+000 -4.7196045952921764e+001 -4.4266163034170347e-001 0 -7 -4
10167 984 13 2.0000000000000000e-002 9.9952746053733765e+000 -4.6592077225401013e+001 9.4798880618541386e+000 0 -4 -3
7485 723 15 -2.3669999999999999e-001 -1.5167682986144104e-001 -4.8107781136286455e+001 1.2809592033712307e+000 0 -7 -4
10168 984 14 4.0000000000000001e-002 1.0665849262289900e+001 -4.6883556005382175e+001 7.2641759176975533e+000 0 -4 -3
6363 617 9 8.4900000000000003e-002 5.0286304930912280e+000 -4.7827487800587946e+001 8.1320023324776471e+000 0 -8 -4
7787 754 12 3.2989999999999998e-002 1.4711707703233543e+001 -4.6522718116687557e+001 3.0374494164777524e+000 0 -1 0
8679 842 15 -2.3669999999999999e-001 1.2129846122266059e+001 -4.7111968217205572e+001 -7.3441572331047844e-001 0 -4 -3
6367 617 12 3.2989999999999998e-002 7.2302740805299113e+000 -4.9290035894006543e+001 7.4916602740423173e+000 0 -8 -4
2602 249 12 3.2989999999999998e-002 9.4521326590266739e+000 -4.8137294224405920e+001 -1.7658825250634660e+000 0 -7 -4
10173 984 14 4.0000000000000001e-002 1.1080942932119831e+001 -4.9112596952078206e+001 8.4728894510623736e+000 0 -4 -3
8683 842 14 4.0000000000000001e-002 1.1740060421589030e+001 -4.7684154994499799e+001 3.1299708032824620e+000 0 -4 -3
5101 493 13 2.0000000000000000e-002 1.1966738539946773e+000 -4.8804401003848639e+001 1.4903610484082231e+001 0 -7 -5
2603 249 12 3.2989999999999998e-002 8.5885190809806655e+000 -4.8728435214591009e+001 8.0743772926744661e-001 0 -7 -4
10169 984 15 -2.3669999999999999e-001 9.6044332112525428e+000 -4.7588834129713391e+001 1.0811248606097799e+001 0 -4 -3
1367 129 12 3.2989999999999998e-002 2.6552808190226056e+000 -4.8652395774822580e+001 1.1087836118000174e+001 0 -6 -5
3710 361 14 4.0000000000000001e-002 6.6260360471786441e+000 -4.8011853250393827e+001 1.3803967727574834e+001 0 -7 -5
3981 383 13 2.0000000000000000e-002 1.3317778398533637e+001 -4.9222065961502992e+001 1.3380746884127960e+001 0 0 -1
3977 383 15 -2.3669999999999999e-001 1.2303234968295527e+001 -4.8115816987531545e+001 1.3624403118279695e+001 0 0 -1
2601 249 13 2.0000000000000000e-002 8.0005328630642314e+000 -4.8592507471226057e+001 -9.5034387125238551e-001 0 -7 -4
5103 493 12 3.2989999999999998e-002 2.7574130162159936e+000 -4.8460470067055525e+001 1.5818514955714553e+001 0 -7 -5
3709 361 13 2.0000000000000000e-002 5.9348220930520519e+000 -4.8745043158624000e+001 1.1926731681054465e+001 0 -7 -5
8685 842 3 -3.2719999999999999e-001 1.2698998821820570e+001 -4.9205533743796479e+001 4.8825889955688373e-001 0 -4 -3
11160 1082 13 2.0000000000000000e-002 2.0155250627999459e+000 -5.2292167988656516e+001 5.5955454482827633e+000 0 -7 -4
365 33 12 3.2989999999999998e-002 8.5111018680791446e+000 -4.8531689927810206e+001 3.6123094820595520e+000 0 -4 -4
10170 984 18 -4.2830000000000000e-002 1.1205878372887151e+001 -4.8124749200396970e+001 6.9528530552366199e+000 0 -4 -3
3712 361 13 2.0000000000000000e-002 6.8989381145225632e+000 -4.9082417868876028e+001 1.5277246217337302e+001 0 -7 -5
7489 724 13 2.0000000000000000e-002 1.0854546194656010e+000 -4.9198824933848115e+001 1.3975845510827494e+000 0 -7 -4
5102 493 12 3.2989999999999998e-002 2.0440418717934783e-001 -4.9132218386298298e+001 -1.7644296581230359e+000 0 -7 -4
363 33 13 2.0000000000000000e-002 6.9019754100384318e+000 -4.8423813203259826e+001 4.5238102257434738e+000 0 -4 -4
7486 723 18 -4.2830000000000000e-002 1.5165434765726573e+000 -4.9102368007822115e+001 4.3803026836946310e+000 0 -7 -4
1365 129 13 2.0000000000000000e-002 1.7597505675119764e+000 -4.8965499785648944e+001 1.2635341747214650e+001 0 -6 -5
7490 724 14 4.0000000000000001e-002 3.1244560939730786e+000 -4.8986181079916904e+001 2.5913052207003728e+000 0 -7 -4
11152 1082 18 -4.2830000000000000e-002 -2.9973403965364023e+000 -5.0116218475560920e+001 6.3852993324535881e+000 0 -7 -4
11158 1082 18 -4.2830000000000000e-002 3.0823131182552199e-001 -5.0412568899659263e+001 4.6487592751071967e+000 0 -7 -4
6366 617 12 3.2989999999999998e-002 4.0292593492603768e+000 -4.8704214334177522e+001 7.1714574529292054e+000 0 -8 -4
6365 617 13 2.0000000000000000e-002 5.7990245578678596e+000 -4.8850246181516027e+001 6.5550400133731053e+000 0 -8 -4
364 33 12 3.2989999999999998e-002 6.0062168640595726e+000 -4.7993101553363360e+001 3.0354293035630686e+000 0 -4 -4
8682 842 13 2.0000000000000000e-002 1.2271986528356138e+001 -4.8022852545199996e+001 8.4575440851838657e-001 0 -4 -3
1366 129 12 3.2989999999999998e-002 2.4328213578542712e-001 -4.9326928172982015e+001 1.1870997358125406e+001 0 -6 -5
2592 248 9 8.4900000000000003e-002 9.0783757625447219e+000 -4.9809010328336605e+001 3.0321944611335638e-003 0 -7 -4
3711 361 15 -2.3669999999999999e-001 5.4567075800992804e+000 -4.9937783582783879e+001 1.1879936985183427e+001 0 -7 -5
6370 618 9 8.4900000000000003e-002 5.5927116597021911e+000 -4.9952808232642376e+001 8.0928568340615215e+000 0 -8 -4
7791 755 9 8.4900000000000003e-002 1.5928642219003130e+001 -4.8388578682446031e+001 4.1578767514729016e+000 0 -1 0
5106 494 9 8.4900000000000003e-002 6.5537512121166230e-001 -5.0272258658897812e+001 1.5326011405651196e+001 0 -7 -5
3715 361 14 4.0000000000000001e-002 6.4984106273909088e+000 -5.0379766679628801e+001 1.5233449355385806e+001 0 -7 -5
11154 1082 13 2.0000000000000000e-002 7.6544705024950144e-001 -5.0733614421437245e+001 7.4319042586205448e+000 0 -7 -4
7492 724 2 -4.2830000000000000e-002 4.5394985231849336e+000 -4.9936570857930413e+001 2.4460866560594878e+000 0 -7 -4
1356 128 9 8.4900000000000003e-002 1.9149949782194557e+000 -5.0257258008240719e+001 1.1567392081936170e+001 0 -6 -5
11155 1082 14 4.0000000000000001e-002 -1.3095972848692203e+000 -5.0912756530049649e+001 6.1584383974161483e+000 0 -7 -4
5109 494 12 3.2989999999999998e-002 -1.8938703042737171e-001 -5.1288487242855275e+001 -2.0926238454562762e+000 0 -7 -4
8686 842 18 -4.2830000000000000e-002 1.1797127307214787e+001 -4.8593603975708064e+001 4.8053168140548763e+000 0 -4 -3
10172 984 13 2.0000000000000000e-002 9.9936478924739198e+000 -4.8784707656440588e+001 1.0507341894561732e+001 0 -4 -3
7491 724 15 -2.3669999999999999e-001 6.0691234244909342e-001 -5.0315116695317542e+001 7.1809818896436495e-001 0 -7 -4
3982 383 14 4.0000000000000001e-002 1.5562729350334390e+001 -4.9273681641624293e+001 1.2413848246318222e+001 0 0 -1
2596 248 12 3.2989999999999998e-002 1.0341630318624105e+001 -5.0655180006369100e+001 4.3072030573915221e-001 0 -7 -4
372 34 12 3.2989999999999998e-002 6.4618639858870726e+000 -5.0702326447071947e+001 4.9856777824841974e+000 0 -4 -4
11157 1082 3 -3.2719999999999999e-001 2.2925359589236587e+000 -5.1604533616546931e+001 7.5072021231972865e+000 0 -7 -4
1499 143 3 -3.2719999999999999e-001 1.6722179385928744e+001 -4.9067616394392374e+001 8.1683011973857784e+000 0 0 -1
7794 755 12 3.2989999999999998e-002 1.5784593329099913e+001 -4.9532422490537392e+001 1.6591950609436328e+000 0 -1 0
7793 755 11 -4.1939999999999998e-003 1.6491634442533314e+001 -4.9740825188553096e+001 3.3118193435441690e+000 0 -1 0
11161 1082 9 8.4900000000000003e-002 9.4961932507303892e-002 -5.1789416275268067e+001 4.5196885034148266e+000 0 -7 -4
3714 361 13 2.0000000000000000e-002 5.4499196766139288e+000 -5.0869954100985581e+001 1.3364529007079403e+001 0 -7 -5
10175 984 3 -3.2719999999999999e-001 9.4439978881909123e+000 -4.9734193098377027e+001 1.1919034663652203e+001 0 -4 -3
7495 724 14 4.0000000000000001e-002 4.0952397506613920e+000 -5.1084346389765045e+001 1.9792780934708922e+000 0 -7 -4
5108 494 13 2.0000000000000000e-002 6.4472186062068992e-001 -5.1695888895463163e+001 1.4476069020978924e+001 0 -7 -5
8689 842 9 8.4900000000000003e-002 1.2309709930994966e+001 -4.9814957522488825e+001 4.4488907055183908e+000 0 -4 -3
6372 618 11 -4.1939999999999998e-003 6.7265593114225943e+000 -5.1177058996302698e+001 8.3016313795633128e+000 0 -8 -4
6373 618 12 3.2989999999999998e-002 6.8078512595639467e+000 -5.1342364827199852e+001 1.0131266673321029e+001 0 -8 -4
5465 526 12 3.2989999999999998e-002 2.9663025734275799e+001 -4.7358765312315541e+001 2.7895919030847391e+000 0 7 4
7494 724 13 2.0000000000000000e-002 1.9560741790469676e+000 -5.1292989066918771e+001 9.8688703444320636e-001 0 -7 -4
7795 755 12 3.2989999999999998e-002 1.5467473001203583e+001 -5.0222252461222944e+001 4.5488891835686447e+000 0 -1 0
6374 618 12 3.2989999999999998e-002 8.4725708693369253e+000 -5.1160038017792296e+001 7.6472286702754300e+000 0 -8 -4
2711 262 3 -3.2719999999999999e-001 1.5582434998918185e+001 -5.0385721240154552e+001 -1.1555114692756812e+000 0 1 0
1359 128 12 3.2989999999999998e-002 1.8539520777113134e+000 -5.1049902982933624e+001 1.0721842220690764e+001 0 -6 -5
371 34 12 3.2989999999999998e-002 9.3131490211914976e+000 -5.1230809856305825e+001 4.4812772047911356e+000 0 -4 -4
370 34 13 2.0000000000000000e-002 7.5591064800196204e+000 -5.1173355271362652e+001 3.7893062074380639e+000 0 -4 -4
1358 128 13 2.0000000000000000e-002 1.5447546179898719e+000 -5.1604490028599216e+001 1.2207608686500338e+001 0 -6 -5
8692 842 18 -4.1939999999999998e-003 1.2387105811437770e+001 -5.0755771118293971e+001 6.0832558941430648e+000 0 -4 -3
10176 984 18 -4.2830000000000000e-002 1.1612590198701975e+001 -5.0341564473762141e+001 8.1909957278991019e+000 0 -4 -3
1502 143 13 2.0000000000000000e-002 1.7298467820539155e+001 -5.0291484524531889e+001 7.8306110127282160e+000 0 0 -1
8688 842 13 2.0000000000000000e-002 1.2810316271953159e+001 -5.0174052802068481e+001 2.1846429412716395e+000 0 -4 -3
7853 762 13 2.0000000000000000e-002 3.4891493239254025e+001 -4.7507610883809448e+001 3.9955684340052997e+000 0 9 6
3983 383 15 -2.3669999999999999e-001 1.2540241876168658e+001 -5.0315111050256135e+001 1.4059680670800118e+001 0 0 -1
7498 724 13 2.0000000000000000e-002 5.7789400781578326e+000 -5.1871602105660045e+001 2.7275935466763697e+000 0 -7 -4
10178 984 13 2.0000000000000000e-002 9.9384137886892532e+000 -5.0954159554852964e+001 1.1517747716393911e+001 0 -4 -3
2416 232 13 2.0000000000000000e-002 -2.8969923089109209e+000 -4.4586465374639793e+001 1.3946836876115922e+001 1 -8 -5
11127 1081 15 -2.3669999999999999e-001 3.3797521963303812e-001 -4.2330161958707379e+001 8.9034999545590630e+000 0 -7 -4
2345 224 14 4.0000000000000001e-002 -4.1507318401991418e+000 -1.5955941312758632e+001 6.8432543975216582e+000 1 -9 -5
2418 232 12 3.2989999999999998e-002 -2.2509005260595694e+000 -4.5289582801851900e+001 1.5046891335283982e+001 1 -8 -5
3037 293 1 -1.9810000000000000e-001 3.2984443340245896e+001 -4.4313724459733002e+001 1.2464170151896067e+001 0 9 6
2417 232 12 3.2989999999999998e-002 -1.3382457594070201e+000 -4.4139140622216608e+001 1.3334021714174352e+001 1 -8 -5
12314 1194 1 -1.9810000000000000e-001 -1.5756069535548063e+000 -4.2487892368106607e+001 1.2361920682368027e+001 1 -6 -4
6377 619 9 8.4900000000000003e-002 5.5270138043778694e+000 -5.2331887102413994e+001 7.7328328566710223e+000 0 -8 -4
1360 128 12 3.2989999999999998e-002 2.3828810307333201e+000 -5.2120429039833525e+001 1.0809958206392636e+001 0 -6 -5
7375 714 12 3.2989999999999998e-002 -3.8778233449818882e+000 -4.8081198073158660e+001 -1.2598754596181265e+000 1 -7 -4
2396 229 12 3.2989999999999998e-002 -2.4686584546315569e+000 -5.2276245092218218e+001 9.9520938359404596e+000 1 -8 -5
7369 713 12 3.2989999999999998e-002 -4.1016689354645282e+000 -4.6116278280703277e+001 -2.1253165093997906e+000 1 -7 -4
427 41 15 -2.3669999999999999e-001 3.3663451803236534e+001 -5.2084465333218375e+001 1.3304365661703343e+001 0 6 2
297 24 13 2.0000000000000000e-002 4.6809242398081885e+000 -4.1636294282252209e+001 2.0590660909672946e+000 0 -4 -4
2705 262 15 -2.3669999999999999e-001 1.6009164475440180e+001 -4.8123385817579837e+001 -1.6705511816704806e+000 0 1 0
3824 367 12 3.2989999999999998e-002 9.0433004478644801e+000 -4.0547187042012808e+001 1.2238907647086428e+001 0 -7 -5
3823 367 13 2.0000000000000000e-002 7.8547296983429753e+000 -4.0790136561579864e+001 1.3657149758641843e+001 0 -7 -5
2622 252 13 2.0000000000000000e-002 6.9546058787501153e+000 -4.0495152053999057e+001 1.5837454111229656e+001 0 -7 -5
2624 252 12 3.2989999999999998e-002 8.0785154440338474e+000 -4.0021178960420869e+001 -9.6989834829087984e-001 0 -7 -4
3965 383 15 -2.3669999999999999e-001 1.2076442293554091e+001 -4.3593229165899793e+001 1.2521637619853953e+001 0 0 -1
3825 367 12 3.2989999999999998e-002 6.3878588957677831e+000 -4.0963198180511306e+001 1.2587976765876343e+001 0 -7 -5
10029 971 9 8.4900000000000003e-002 -3.0373636306069933e+000 -5.1357666572106034e+001 1.2171937447562375e+000 0 -6 -4