LAMMPS data file via write_data, version 22 Aug 2018, timestep = 0

7824 atoms
18 atom types
9593 bonds
18 bond types
19706 angles
39 angle types
31106 dihedrals
62 dihedral types
7651 impropers
9 improper types

-4.0423280901341450e+001 1.2642328290132585e+002 xlo xhi
-4.7593724647430086e+001 1.9993725647430090e+001 ylo yhi
-9.0746710023847790e+000 2.2874671002383447e+001 zlo zhi

Masses

1 14.0067
2 12.011
3 14.0067
4 15.9994
5 1.008
6 1.008
7 15.9994
8 12.011
9 12.011
10 1.008
11 12.011
12 1.008
13 12.011
14 12.011
15 14.0067
16 15.9994
17 14.0067
18 12.011

Bond Coeffs # harmonic

1 1365.78 1.155
2 398.26 1.093
3 1024.04 1.2
4 500.95 1.374
5 362.01 1.1
6 362.01 1.1
7 509.51 1.359
8 591.76 0.965
9 517.41 1.528
10 497.83 1.459
11 362.01 1.1
12 705.27 1.398
13 362.01 1.1
14 705.27 1.398
15 634.85 1.335
16 398.26 1.093
17 634.85 1.335
18 867.4 1.238

Angle Coeffs # harmonic

1 50 180
2 50 104.51
3 50 109.471
4 50 109.471
5 50 109.471
6 50 120
7 50 120
8 50 120
9 50 120
10 50 120
11 50 120
12 50 120
13 50 120
14 50 109.471
15 50 109.471
16 50 120
17 50 109.471
18 50 109.471
19 50 109.471
20 50 120
21 50 109.471
22 50 109.471
23 50 120
24 50 109.471
25 50 109.471
26 50 109.471
27 50 120
28 50 106.7
29 50 109.471
30 50 109.471
31 50 109.471
32 50 120
33 50 109.471
34 50 109.471
35 50 106.7
36 50 120
37 50 120
38 50 120
39 50 120

Dihedral Coeffs # harmonic

1 0 1 1
2 0 1 1
3 1 1 3
4 1 1 3
5 1 1 3
6 0.5 -1 6
7 12.5 -1 2
8 12.5 -1 2
9 0.5 -1 6
10 0.5 -1 6
11 0.5 -1 6
12 12.5 -1 2
13 12.5 -1 2
14 1 1 3
15 1 1 3
16 1 1 3
17 1 1 3
18 12.5 -1 2
19 12.5 -1 2
20 12.5 -1 2
21 0.5 -1 6
22 0.5 -1 6
23 12.5 -1 2
24 12.5 -1 2
25 12.5 -1 2
26 1 1 3
27 1 1 3
28 1 1 3
29 12.5 -1 2
30 12.5 -1 2
31 0.5 -1 6
32 0.5 -1 6
33 12.5 -1 2
34 1 1 3
35 0.5 -1 6
36 0.5 -1 6
37 1 1 3
38 1 1 3
39 1 1 3
40 1 1 3
41 1 1 3
42 1 1 3
43 1 1 3
44 0.5 -1 6
45 0.5 -1 6
46 0.5 -1 6
47 1 1 3
48 0.5 -1 6
49 0.5 -1 6
50 1 1 3
51 1 1 3
52 1 -1 2
53 0.5 -1 6
54 0.5 -1 6
55 0.5 -1 6
56 12.5 -1 2
57 12.5 -1 2
58 12.5 -1 2
59 12.5 -1 2
60 12.5 -1 2
61 12.5 -1 2
62 12.5 -1 2

Improper Coeffs # umbrella

1 20 0
2 20 0
3 20 0
4 20 0
5 20 0
6 20 0
7 20 0
8 20 0
9 20 0

Atoms # full

10085 979 9 8.4900000000000003e-002 -4.0113770398592209e+001 -4.1929379507554941e+001 -1.0474920589830017e+000 0 -7 -4
10089 979 10 3.2989999999999998e-002 -3.8526079637348936e+001 -4.2802003847874914e+001 -4.5112913251582292e+000 0 -7 -4
10040 972 10 3.2989999999999998e-002 -3.8055146420465860e+001 -4.5044203159090330e+001 -4.5808895366582645e+000 0 -6 -4
10036 972 9 8.4900000000000003e-002 -3.9335176176916661e+001 -4.4382076358169783e+001 -1.1464330461043764e+000 0 -6 -4
5099 493 9 8.4900000000000003e-002 -3.1402009070742743e+001 -4.3310820697634171e+001 -8.9619551654454650e+000 0 -7 -4
10039 972 10 3.2989999999999998e-002 -3.8463744756729341e+001 -4.5893170303801789e+001 -5.0469758372347684e-001 0 -6 -4
7484 723 14 4.0000000000000001e-002 -3.0331624638257672e+001 -4.3530967962750232e+001 2.8403057851718447e+000 0 -7 -4
10082 978 10 3.2989999999999998e-002 -3.8291805129059973e+001 -4.0561800277204050e+001 1.4670282939595296e+000 0 -7 -4
7483 723 13 2.0000000000000000e-002 -3.2225196012308295e+001 -4.3070891684482099e+001 -5.9032344786579038e-001 0 -7 -4
7480 723 13 2.0000000000000000e-002 -2.8204082858252434e+001 -4.2549421620176865e+001 4.6473895106917276e+000 0 -7 -4
5149 500 10 3.2989999999999998e-002 -3.2621781903642322e+001 -4.2315516026229460e+001 -7.6148809625808962e+000 0 -7 -4
5150 500 10 3.2989999999999998e-002 -2.8035291573228964e+001 -4.1757965133356691e+001 -8.0660847997116196e+000 0 -7 -4
7479 723 15 -2.3669999999999999e-001 -3.2978246634841881e+001 -4.2018527961548472e+001 -9.4290191604500073e-001 0 -7 -4
7477 723 9 8.4900000000000003e-002 -2.8843624455855462e+001 -4.1391473581428393e+001 4.1665063816106027e+000 0 -7 -4
5147 500 14 4.0000000000000001e-002 -3.0919725854800586e+001 -4.0838529998259531e+001 -8.7199687844108880e+000 0 -7 -4
5146 500 13 2.0000000000000000e-002 -3.3134828109223868e+001 -4.0473005050207192e+001 -5.3605592282797581e+000 0 -7 -4
7474 723 13 2.0000000000000000e-002 -2.7105698254795552e+001 -4.0374783335865359e+001 5.6621422989896715e+000 0 -7 -4
7473 723 3 -3.2719999999999999e-001 -3.3230984475945881e+001 -4.0062766575121969e+001 1.6183181104560838e+000 0 -7 -4
7476 723 13 2.0000000000000000e-002 -3.1832921976333328e+001 -4.1142084146741020e+001 1.3230574418452861e+000 0 -7 -4
5037 484 15 -2.3669999999999999e-001 -3.3681726241575760e+001 -3.9446807689690246e+001 -4.1402020057435900e+000 0 -7 -4
5035 484 13 2.0000000000000000e-002 -3.2488625107454467e+001 -3.8511699913183719e+001 -5.4601595595563843e+000 0 -7 -4
7470 723 13 2.0000000000000000e-002 -3.1438056149515504e+001 -3.9113133217173896e+001 2.7743611691858501e+000 0 -7 -4
7471 723 14 4.0000000000000001e-002 -2.7935955329678304e+001 -3.9260385830551328e+001 5.1230354879466748e+000 0 -7 -4
7467 723 15 -2.3669999999999999e-001 -3.2409865752758996e+001 -3.8052406314564720e+001 2.4070204427018087e+000 0 -7 -4
7485 723 15 -2.3669999999999999e-001 -3.3335317081018886e+001 -4.3887923995023222e+001 -3.0400831692357801e+000 0 -7 -4
11160 1082 13 2.0000000000000000e-002 -2.9501536932900891e+001 -4.7557631264551759e+001 4.5924198980127198e+000 0 -7 -4
7489 724 13 2.0000000000000000e-002 -3.1146831547159348e+001 -4.4844769405484797e+001 -2.8337729291341045e+000 0 -7 -4
5102 493 10 3.2989999999999998e-002 -3.2705409761873732e+001 -4.4786355463283606e+001 -8.4273760652191374e+000 0 -7 -4
7486 723 18 -4.2830000000000000e-002 -3.0384235358936962e+001 -4.4760176681359994e+001 2.4426554474563140e+000 0 -7 -4
7490 724 14 4.0000000000000001e-002 -2.7539837938755618e+001 -4.4658280745587120e+001 -7.2208106458052868e-001 0 -7 -4
11152 1082 18 -4.2830000000000000e-002 -3.8369295930466890e+001 -4.5649323541566929e+001 5.9894945191109077e+000 0 -7 -4
11158 1082 18 -4.2830000000000000e-002 -3.2521739578374650e+001 -4.5909222863501171e+001 2.9175551576651415e+000 0 -7 -4
11155 1082 14 4.0000000000000001e-002 -3.5383678365927643e+001 -4.6347887415353540e+001 5.5881775250296783e+000 0 -7 -4
5109 494 12 3.2989999999999998e-002 -3.3402026425820019e+001 -4.6677403250484076e+001 -9.0079515826116392e+000 0 -7 -4
7491 724 15 -2.3669999999999999e-001 -3.1993372835201548e+001 -4.5823757280293485e+001 -4.0357843037215266e+000 0 -7 -4
11161 1082 9 8.4900000000000003e-002 -3.2899013110388573e+001 -4.7116718011910095e+001 2.6892289625413408e+000 0 -7 -4
7494 724 13 2.0000000000000000e-002 -2.9606705546259910e+001 -4.6681351350187761e+001 -3.5602968360694556e+000 0 -7 -4
7375 714 10 3.2989999999999998e-002 -3.9926870266266953e+001 -4.3864610648660147e+001 -7.5348196880639531e+000 1 -7 -4
7369 713 10 3.2989999999999998e-002 -4.0322853115830746e+001 -4.2141375990676771e+001 -9.0657849051277157e+000 1 -7 -4
10029 971 9 8.4900000000000003e-002 -3.8440097031537768e+001 -4.6738073522236988e+001 -3.1528842655257030e+000 0 -6 -4
10032 971 10 3.2989999999999998e-002 -3.8633944992426308e+001 -4.7421775462696289e+001 -7.2907997007014096e+000 0 -6 -4
7416 720 12 3.2989999999999998e-002 -3.9546265625254982e+001 -4.0195987168801977e+001 -7.6338238406842640e+000 1 -7 -4
7466 723 14 4.0000000000000001e-002 -2.7589488035434172e+001 -3.7149489643836347e+001 6.2881539120564458e+000 0 -7 -4
10075 977 12 3.2989999999999998e-002 -3.7734388438326405e+001 -3.8341689046680713e+001 1.4183803048168997e+000 0 -7 -4
10073 977 11 -4.1939999999999998e-003 -4.0179394908917573e+001 -3.8142430847577131e+001 -6.0406746971671943e-001 0 -7 -4
7465 723 13 2.0000000000000000e-002 -3.1039962332283320e+001 -3.7062366390726567e+001 3.7497404408492727e+000 0 -7 -4
10078 978 9 8.4900000000000003e-002 -4.0081157816653743e+001 -3.9384103481278949e+001 -2.4782053830518755e+000 0 -7 -4
10038 972 13 2.0000000000000000e-002 -4.0196256426350701e+001 -4.5584365953026868e+001 -3.0300580164630064e+000 0 -6 -4
5031 484 15 -2.3669999999999999e-001 -3.3169345076513174e+001 -3.7530183787451840e+001 -3.8549616316963862e+000 0 -7 -4
11226 1085 12 3.2989999999999998e-002 -3.7868097399601041e+001 -3.7222162027604242e+001 4.2313985207601874e+000 0 -7 -4
11225 1085 13 2.0000000000000000e-002 -3.9644601399362685e+001 -3.6781460521492370e+001 6.3603027543881936e+000 0 -7 -4
10071 977 9 8.4900000000000003e-002 -3.9434706645908818e+001 -3.6830159218892376e+001 -1.2853905587486967e+000 0 -7 -4
5028 484 13 2.0000000000000000e-002 -3.2245004414298599e+001 -3.6540069695967816e+001 -5.1809630533137359e+000 0 -7 -4
368 34 9 8.4900000000000003e-002 -1.8659193454333963e+001 -4.5319348885370601e+001 1.8339432741885151e+000 0 -4 -4
2608 250 13 2.0000000000000000e-002 -2.0053254427805371e+001 -4.2010293114691883e+001 -8.5542916776926816e+000 0 -7 -4
2609 250 10 3.2989999999999998e-002 -1.8968563247666534e+001 -4.2136682560787293e+001 -5.5103750213771825e+000 0 -7 -4
2610 250 10 3.2989999999999998e-002 -2.3086771630203039e+001 -4.1664448600068631e+001 -8.1056143849582885e+000 0 -7 -4
412 40 10 3.2989999999999998e-002 -2.3739976447197041e+001 -4.2005742247409742e+001 -2.1224165622586257e+000 0 -4 -4
410 40 11 -4.1939999999999998e-003 -2.1205506341980119e+001 -4.1785147488703892e+001 2.3345600152525847e-002 0 -4 -4
411 40 12 3.2989999999999998e-002 -1.8216266700893303e+001 -4.1774441660811121e+001 -1.3234157806245506e+000 0 -4 -4
2606 250 9 8.4900000000000003e-002 -2.0012668047703976e+001 -4.0784752818912047e+001 -7.2946365920699110e+000 0 -7 -4
10162 983 14 4.0000000000000001e-002 -1.5451482862300729e+001 -4.0777234507591245e+001 5.5883216085631986e+000 0 -4 -3
409 40 14 4.0000000000000001e-002 -2.1813097716971050e+001 -4.0513894035363720e+001 -2.5951455557976288e-002 0 -4 -4
408 40 13 2.0000000000000000e-002 -2.5273279655837261e+001 -4.0151881410909681e+001 -2.2920554415715158e+000 0 -4 -4
10164 983 18 -4.2830000000000000e-002 -1.4416048283790733e+001 -4.1924878280458998e+001 4.8432479789840670e+000 0 -4 -3
8680 842 18 -4.2830000000000000e-002 -1.3068399983861461e+001 -4.2458118816292895e+001 1.1760060234770418e+000 0 -4 -3
2617 251 10 3.2989999999999998e-002 -2.0062394893994220e+001 -3.9788643707790769e+001 -5.8928580882514234e+000 0 -7 -4
7468 723 13 2.0000000000000000e-002 -2.6332819990810975e+001 -3.8252989882949194e+001 6.6516228871563854e+000 0 -7 -4
2613 251 9 8.4900000000000003e-002 -2.0765268230548635e+001 -3.8407206826079971e+001 -7.5163746551126120e+000 0 -7 -4
10155 983 9 8.4900000000000003e-002 -1.5408988933440266e+001 -3.8646610256950261e+001 5.1906194818562810e+000 0 -4 -5
299 24 15 -2.3669999999999999e-001 -2.6419189110426174e+001 -3.9123903247568101e+001 -2.8873208403938788e+000 0 -4 -4
298 24 14 4.0000000000000001e-002 -2.1190425230566898e+001 -3.8444924079269754e+001 4.6156960831835647e-001 0 -4 -4
300 24 18 -4.2830000000000000e-002 -1.9897437036964110e+001 -3.9539921844817698e+001 1.2296083473598145e+000 0 -4 -4
10158 983 18 -4.2830000000000000e-002 -1.6645102598714665e+001 -3.9708128608505689e+001 4.0228147554779365e+000 0 -4 -3
361 33 9 8.4900000000000003e-002 -2.1123912769647433e+001 -4.2889271995898255e+001 2.5466910915262329e+000 0 -4 -4
2599 249 9 8.4900000000000003e-002 -1.9106300500943259e+001 -4.3088332239212384e+001 -6.0891684240739608e+000 0 -7 -4
2602 249 10 3.2989999999999998e-002 -1.6346178095175809e+001 -4.3913806973303991e+001 -8.4299461868367587e+000 0 -7 -4
2603 249 10 3.2989999999999998e-002 -1.7873910514739197e+001 -4.4432237621696316e+001 -3.8777426569253741e+000 0 -7 -4
2601 249 13 2.0000000000000000e-002 -1.8914058134233372e+001 -4.4313028990765247e+001 -6.9872583082449573e+000 0 -7 -4
365 33 12 3.2989999999999998e-002 -1.8010861564361992e+001 -4.4259692005189549e+001 1.0840754737638587e+000 0 -4 -4
363 33 13 2.0000000000000000e-002 -2.0857406268636009e+001 -4.4165084117758866e+001 2.6965202893407181e+000 0 -4 -4
6365 617 13 2.0000000000000000e-002 -2.2808526326125754e+001 -4.4539065839689556e+001 6.2897657836575345e+000 0 -8 -4
364 33 10 3.2989999999999998e-002 -2.2442003136472614e+001 -4.3787350000799663e+001 6.3574438003579203e-002 0 -4 -4
2592 248 9 8.4900000000000003e-002 -1.7007354045052384e+001 -4.5379901996451203e+001 -5.3007360479977423e+000 0 -7 -4
7492 724 2 -4.2830000000000000e-002 -2.5036627881479848e+001 -4.5491772580904971e+001 -9.7897270543025350e-001 0 -7 -4
2596 248 12 3.2989999999999998e-002 -1.4772656735347955e+001 -4.6121992804085700e+001 -4.5441557791469274e+000 0 -7 -4
372 34 10 3.2989999999999998e-002 -2.1635963377959765e+001 -4.6163340232582094e+001 3.5135639972150567e+000 0 -4 -4
7495 724 14 4.0000000000000001e-002 -2.5822521650073995e+001 -4.6498371722323945e+001 -1.8047570526494789e+000 0 -7 -4
371 34 12 3.2989999999999998e-002 -1.6592040150506239e+001 -4.6626820182480209e+001 2.6212793752760319e+000 0 -4 -4
370 34 13 2.0000000000000000e-002 -1.9694941405839288e+001 -4.6576432511485045e+001 1.3971826809584460e+000 0 -4 -4
7498 724 13 2.0000000000000000e-002 -2.2844055770732790e+001 -4.7188794985163860e+001 -4.8098701592899040e-001 0 -7 -4
297 24 13 2.0000000000000000e-002 -2.4786445788773310e+001 -3.8212430024035186e+001 -1.6636120850783440e+000 0 -4 -4
2624 252 10 3.2989999999999998e-002 -1.8776106948498118e+001 -3.6795973886789099e+001 -7.0218501781260541e+000 0 -7 -4
293 24 15 -2.3669999999999999e-001 -2.6168755078004928e+001 -3.7205067428063913e+001 -2.1911117123169728e+000 0 -4 -4
294 24 18 -4.2830000000000000e-002 -1.9863550113360716e+001 -3.7434150748869314e+001 1.8207968411623039e+000 0 -4 -4
10152 983 18 -4.2830000000000000e-002 -1.6636989420793377e+001 -3.7565207250080313e+001 4.5059400067066147e+000 0 -4 -3
8661 841 3 -3.2719999999999999e-001 -1.3182012113574114e+001 -3.7310246185782837e+001 -8.8633781524279094e+000 0 -4 -3
10149 983 14 4.0000000000000001e-002 -1.5199405932554026e+001 -3.6546400929501047e+001 5.9350983131482753e+000 0 -4 -3
7824 760 13 2.0000000000000000e-002 -1.3086483856763785e+001 -3.6973261063860704e+001 -1.1379457228707528e+000 0 -1 0
2623 252 10 3.2989999999999998e-002 -2.3460648987615684e+001 -3.7497043967036440e+001 -7.6615160512130078e+000 0 -7 -4
291 24 9 8.4900000000000003e-002 -2.1223205933733265e+001 -3.6369582873009541e+001 1.0966513379448166e+000 0 -4 -4
2594 248 13 2.0000000000000000e-002 -1.6940946393162463e+001 -4.6609043921471127e+001 -5.9868382130682214e+000 0 -7 -4
2595 248 10 3.2989999999999998e-002 -1.4918178168262770e+001 -4.6592143614605277e+001 -8.6804879028123452e+000 0 -7 -4
375 35 9 8.4900000000000003e-002 -1.7744176354811238e+001 -4.7588903877913360e+001 3.2823487095659036e+000 0 -4 -4
3718 361 13 2.0000000000000000e-002 -2.0299733753516847e+001 -4.6839169935942181e+001 -8.3249682439070405e+000 0 -7 -4
2585 247 9 8.4900000000000003e-002 -1.4555536285851897e+001 -4.7572386652959480e+001 -4.2045436844927409e+000 0 -7 -4
2402 230 11 -4.1939999999999998e-003 -3.8117935056990291e+001 -4.5698633800376584e+001 1.4160443092803078e+001 1 -8 -5
2393 229 9 8.4900000000000003e-002 -3.6279492633572360e+001 -4.6982177818512795e+001 1.4348847276464983e+001 1 -8 -5
11149 1082 13 2.0000000000000000e-002 -3.3175484227444933e+001 -4.4532551159146323e+001 8.6492832042056804e+000 0 -7 -4
2400 230 9 8.4900000000000003e-002 -3.7916605989016048e+001 -4.4354062000372039e+001 1.5670602471535254e+001 1 -8 -5
2407 231 9 8.4900000000000003e-002 -3.7163315711496217e+001 -4.1963197416145988e+001 1.7617890477331702e+001 1 -8 -5
2403 230 12 3.2989999999999998e-002 -3.5669182377691058e+001 -4.5598233686453604e+001 1.2145285114664294e+001 1 -8 -5
11143 1081 13 2.0000000000000000e-002 -3.4316902820979145e+001 -4.2902973163908648e+001 9.4612638670895777e+000 0 -7 -4
11144 1081 14 4.0000000000000001e-002 -3.8317714977072178e+001 -4.3013116046797222e+001 8.0921291790736198e+000 0 -7 -4
11146 1081 18 -4.2830000000000000e-002 -3.9950860782995107e+001 -4.3942438113435983e+001 7.2259677765883445e+000 0 -7 -4
11145 1081 15 -2.3669999999999999e-001 -3.1802487595837952e+001 -4.3651115456315651e+001 9.9564983363000756e+000 0 -7 -4
11150 1082 14 4.0000000000000001e-002 -3.7150652197537084e+001 -4.4699043223872138e+001 7.1828201626906676e+000 0 -7 -4
2410 231 10 3.2989999999999998e-002 -3.6074373367473960e+001 -4.3069382694614973e+001 1.6654043621100918e+001 1 -8 -5
1363 129 9 8.4900000000000003e-002 -2.8707115643674339e+001 -4.3471531547533509e+001 1.5901048430106997e+001 0 -6 -5
2409 231 13 2.0000000000000000e-002 -3.9149460812548455e+001 -4.3120404007879714e+001 1.7899008336896781e+001 1 -8 -5
9828 952 1 -1.9810000000000000e-001 -3.8066668183646968e+001 -4.5103404597968051e+001 2.1564283459001622e+001 1 -5 -5
11139 1081 15 -2.3669999999999999e-001 -3.2582440334925408e+001 -4.2051633927950483e+001 1.0449305029811743e+001 0 -7 -4
11137 1081 9 8.4900000000000003e-002 -3.8725825025817997e+001 -4.1310398563340250e+001 8.0472675402854854e+000 0 -7 -4
6359 616 10 3.2989999999999998e-002 -2.6566458185049957e+001 -4.2093481146251179e+001 1.0096437602949006e+001 0 -8 -4
11136 1081 13 2.0000000000000000e-002 -3.4687575728046639e+001 -4.1250439760299791e+001 9.4724345651929269e+000 0 -7 -4
11133 1081 3 -3.2719999999999999e-001 -3.2867872592570187e+001 -4.0451693480157104e+001 1.1198805251641435e+001 0 -7 -4
1374 130 12 3.2989999999999998e-002 -2.6770617068362142e+001 -4.2150982882125696e+001 1.5613186963169952e+001 0 -6 -5
1373 130 10 3.2989999999999998e-002 -3.1557853467481024e+001 -4.2716531100213039e+001 1.6501562115995654e+001 0 -6 -5
5148 500 13 2.0000000000000000e-002 -3.0437974032806721e+001 -4.2084336266379360e+001 2.1899535375740658e+001 0 -7 -5
1372 130 13 2.0000000000000000e-002 -2.8986846210897504e+001 -4.2363818861085960e+001 1.7992673201488337e+001 0 -6 -5
1380 131 12 3.2989999999999998e-002 -2.7166388114874607e+001 -3.9909500208542696e+001 1.4662955608733483e+001 0 -6 -5
1370 130 9 8.4900000000000003e-002 -2.8096418314863328e+001 -4.1269946869717842e+001 1.6077062014839914e+001 0 -6 -5
11130 1081 13 2.0000000000000000e-002 -3.4656410266025048e+001 -3.9634099111599845e+001 9.6773991685632552e+000 0 -7 -4
11131 1081 14 4.0000000000000001e-002 -3.8650779511432241e+001 -3.9576313442879659e+001 8.0206682678061441e+000 0 -7 -4
1379 131 13 2.0000000000000000e-002 -2.8374824937820392e+001 -4.0119979200967585e+001 1.7684723959467053e+001 0 -6 -5
5036 484 14 4.0000000000000001e-002 -3.0563171953364275e+001 -3.8707433999027756e+001 2.2771247594042567e+001 0 -9 -5
5038 484 13 2.0000000000000000e-002 -3.0010376922576569e+001 -3.9814316372070877e+001 2.1460697333917043e+001 0 -7 -5
1377 131 9 8.4900000000000003e-002 -2.7885679348003141e+001 -3.9043253850536445e+001 1.5562524425159214e+001 0 -6 -5
11151 1082 15 -2.3669999999999999e-001 -3.0475515851226319e+001 -4.5273852578436674e+001 9.0186597663411767e+000 0 -7 -4
5101 493 13 2.0000000000000000e-002 -3.0950084721277413e+001 -4.4498859618875258e+001 2.1058386946341976e+001 0 -7 -5
1367 129 10 3.2989999999999998e-002 -2.8369809000143007e+001 -4.4365551033019401e+001 1.4308282092742818e+001 0 -6 -5
5103 493 10 3.2989999999999998e-002 -2.8189137143307903e+001 -4.4197232187307691e+001 2.2676852956659555e+001 0 -7 -5
1365 129 13 2.0000000000000000e-002 -2.9954002015065306e+001 -4.4640143250514122e+001 1.7045819550823225e+001 0 -6 -5
1366 129 10 3.2989999999999998e-002 -3.2636634670789576e+001 -4.4957115946205228e+001 1.5693694326524355e+001 0 -6 -5
5106 494 9 8.4900000000000003e-002 -3.1907642179570566e+001 -4.5786170782353381e+001 2.1805614176597473e+001 0 -7 -5
11154 1082 13 2.0000000000000000e-002 -3.1712924937102628e+001 -4.6190779786100464e+001 7.8409386335002544e+000 0 -7 -4
1356 128 9 8.4900000000000003e-002 -2.9679374652523776e+001 -4.5773015211727106e+001 1.5156616592945596e+001 0 -6 -5
11157 1082 3 -3.2719999999999999e-001 -2.9011504657658044e+001 -4.6954575920211653e+001 7.9741405559365113e+000 0 -7 -4
5108 494 13 2.0000000000000000e-002 -3.1926487797555993e+001 -4.7034694499821192e+001 2.0302066098112228e+001 0 -7 -5
1359 128 10 3.2989999999999998e-002 -2.9787359543522683e+001 -4.6468164854532787e+001 1.3660838888402473e+001 0 -6 -5
1358 128 13 2.0000000000000000e-002 -3.0334329849769912e+001 -4.6954537693581507e+001 1.6289159766419608e+001 0 -6 -5
2416 232 13 2.0000000000000000e-002 -3.8191780163457416e+001 -4.0799730072059099e+001 1.9365854433849577e+001 1 -8 -5
11127 1081 15 -2.3669999999999999e-001 -3.2469122605463149e+001 -3.8820951976286366e+001 1.0444191419615496e+001 0 -7 -4
2418 232 10 3.2989999999999998e-002 -3.7048843799593371e+001 -4.1416364055724117e+001 2.1311850772117875e+001 1 -8 -5
2417 232 12 3.2989999999999998e-002 -3.5434357517385010e+001 -4.0407426264183968e+001 1.8281784412374940e+001 1 -8 -5
12314 1194 1 -1.9810000000000000e-001 -3.5854249469832446e+001 -3.8959281545329496e+001 1.6562137687109551e+001 1 -6 -4
1360 128 10 3.2989999999999998e-002 -2.8851684225626752e+001 -4.7407016206434001e+001 1.3816716067109084e+001 0 -6 -5
2396 229 10 3.2989999999999998e-002 -3.7434057575237219e+001 -4.7543666884375376e+001 1.2299153995779182e+001 1 -8 -5
1386 132 13 2.0000000000000000e-002 -2.8513142644347994e+001 -3.7922028541961822e+001 1.7276695446514072e+001 0 -6 -5
1387 132 10 3.2989999999999998e-002 -2.7912079848342497e+001 -3.7652494906320115e+001 1.4164764186720525e+001 0 -6 -5
5032 484 13 2.0000000000000000e-002 -2.9924199827526746e+001 -3.7674371462314845e+001 2.1117098355772526e+001 0 -7 -5
11126 1081 14 4.0000000000000001e-002 -3.7961506315409991e+001 -3.7804910000508755e+001 7.7104153550443968e+000 0 -7 -4
11125 1081 13 2.0000000000000000e-002 -3.3984993153677294e+001 -3.7943932433498560e+001 9.2906022322362212e+000 0 -7 -4
2414 232 9 8.4900000000000003e-002 -3.9924409766711435e+001 -4.0897385100805863e+001 1.5154934396139112e+001 1 -8 -5
7412 720 13 2.0000000000000000e-002 -3.8360212633214751e+001 -3.8380492014922332e+001 2.2519907439555723e+001 1 -7 -5
11233 1086 10 3.2989999999999998e-002 -3.5777515122828838e+001 -3.7352632094336379e+001 1.4903730687932324e+001 0 -7 -4
1384 132 9 8.4900000000000003e-002 -2.7777055753537862e+001 -3.6813077161365541e+001 1.5515716812348337e+001 0 -6 -5
7303 704 15 -2.3669999999999999e-001 -3.7409356398819298e+001 -3.7341124563093608e+001 2.2653426234456397e+001 1 -7 -5
11232 1086 13 2.0000000000000000e-002 -3.7656983733591375e+001 -3.6693979080329115e+001 1.3959409223241227e+001 0 -7 -4
11234 1086 10 3.2989999999999998e-002 -3.4546570096640423e+001 -3.6760593445089484e+001 1.5116208417585309e+001 0 -7 -4
7301 704 13 2.0000000000000000e-002 -3.9562845524398192e+001 -3.6479113245359329e+001 2.2490899319362349e+001 1 -7 -5
5029 484 9 8.4900000000000003e-002 -3.0648696367340321e+001 -3.6623435055922627e+001 2.2807155875154933e+001 0 -7 -5
6356 616 9 8.4900000000000003e-002 -2.2374369779608330e+001 -4.1623617699601780e+001 9.2513965455078448e+000 0 -8 -4
6360 616 10 3.2989999999999998e-002 -2.2711817182599429e+001 -4.2914911113776853e+001 9.7656333839114140e+000 0 -8 -4
6358 616 13 2.0000000000000000e-002 -2.5021231414904623e+001 -4.2533318284511033e+001 7.7647469809952270e+000 0 -8 -4
1381 131 10 3.2989999999999998e-002 -2.5575854304893056e+001 -4.0437953645545093e+001 1.8917804919414664e+001 0 -6 -5
6353 615 12 3.2989999999999998e-002 -2.6009298162701430e+001 -4.0739076990420465e+001 1.0815629758494111e+001 0 -8 -4
6352 615 10 3.2989999999999998e-002 -2.1389249522066542e+001 -4.0316124957208530e+001 1.0488773474629440e+001 0 -8 -4
6351 615 13 2.0000000000000000e-002 -2.3899059348210727e+001 -4.0532629979004021e+001 8.4091890613968587e+000 0 -8 -4
3811 365 10 3.2989999999999998e-002 -1.7630729664096542e+001 -4.2927933470542278e+001 1.9325272173161089e+001 0 -7 -5
3810 365 12 3.2989999999999998e-002 -2.1607612945711761e+001 -4.2381012187671487e+001 1.6423585060173249e+001 0 -7 -5
3809 365 13 2.0000000000000000e-002 -2.0469964017297659e+001 -4.2482578886969165e+001 1.9564597106495114e+001 0 -7 -5
3817 366 10 3.2989999999999998e-002 -1.6891974081109431e+001 -4.0475572239658078e+001 1.8703120266255425e+001 0 -7 -5
3818 366 12 3.2989999999999998e-002 -1.9942675459636344e+001 -3.9768766462464733e+001 1.5605942810327168e+001 0 -7 -5
2615 251 13 2.0000000000000000e-002 -2.0279299219891818e+001 -3.9607868332599864e+001 2.2789945791355549e+001 0 -7 -5
2616 251 10 3.2989999999999998e-002 -2.3313979361507233e+001 -3.9243942160180090e+001 2.2431142707709913e+001 0 -7 -5
6349 615 9 8.4900000000000003e-002 -2.2031974351297237e+001 -3.9461163935835330e+001 9.6737152514401927e+000 0 -8 -4
6345 614 10 3.2989999999999998e-002 -2.0263985151138524e+001 -3.8698061785268415e+001 1.0551708228486461e+001 0 -8 -4
3816 366 13 2.0000000000000000e-002 -1.9576882402286916e+001 -3.9975204773605434e+001 1.8814126242321777e+001 0 -7 -5
3807 365 9 8.4900000000000003e-002 -2.0053195858116069e+001 -4.1260775842899264e+001 1.7524484170876942e+001 0 -7 -5
10161 983 13 2.0000000000000000e-002 -1.4979016506878519e+001 -4.0578132088708621e+001 9.7922098892638623e+000 0 -4 -3
10163 983 15 -2.3669999999999999e-001 -1.5350144197314236e+001 -4.1463381875516575e+001 1.2154484939161531e+001 0 -4 -3
6346 614 10 3.2989999999999998e-002 -2.3921247422971920e+001 -3.7988858808328601e+001 1.1950650828716860e+001 0 -8 -4
6344 614 13 2.0000000000000000e-002 -2.2847488763734781e+001 -3.8286734041398283e+001 9.1453614580231957e+000 0 -8 -4
3814 366 9 8.4900000000000003e-002 -1.8839686927759491e+001 -3.8727440984244282e+001 1.7266213382917449e+001 0 -7 -5
10154 983 13 2.0000000000000000e-002 -1.3490700647762822e+001 -3.8601868840451786e+001 8.9397982862125573e+000 0 -4 -3
8667 841 15 -2.3669999999999999e-001 -1.3190652272276186e+001 -3.9231548722028364e+001 2.2832497928302548e+001 0 -4 -4
10157 983 15 -2.3669999999999999e-001 -1.3953401035776054e+001 -3.9563205124136452e+001 1.0830810855492349e+001 0 -4 -3
10167 984 13 2.0000000000000000e-002 -1.5385359992088492e+001 -4.2558651665176690e+001 1.1463821981420484e+001 0 -4 -3
10168 984 14 4.0000000000000001e-002 -1.4199113424003166e+001 -4.2814278555220170e+001 7.5442271984074836e+000 0 -4 -3
6363 617 9 8.4900000000000003e-002 -2.4171353426715616e+001 -4.3642106739615627e+001 9.0794121261534713e+000 0 -8 -4
6367 617 10 3.2989999999999998e-002 -2.0276645920536584e+001 -4.4924761417543735e+001 7.9466470247813703e+000 0 -8 -4
10173 984 14 4.0000000000000001e-002 -1.3464812722074019e+001 -4.4769147465472585e+001 9.6824414389298497e+000 0 -4 -3
10169 984 15 -2.3669999999999999e-001 -1.6076758418288247e+001 -4.3432807470258638e+001 1.3818998784187517e+001 0 -4 -3
3710 361 14 4.0000000000000001e-002 -2.1345543001534974e+001 -4.3803795239095386e+001 1.9113118910080392e+001 0 -7 -5
3709 361 13 2.0000000000000000e-002 -2.2568300486384917e+001 -4.4446802788613248e+001 1.5792288343785859e+001 0 -7 -5
10170 984 18 -4.2830000000000000e-002 -1.3243801927356628e+001 -4.3902804987248139e+001 6.9934970547140942e+000 0 -4 -3
3712 361 13 2.0000000000000000e-002 -2.0862779244403583e+001 -4.4742680409504274e+001 2.1719348558470198e+001 0 -7 -5
6366 617 12 3.2989999999999998e-002 -2.5939240980152391e+001 -4.4410995909573685e+001 7.3802082342322741e+000 0 -8 -4
3711 361 15 -2.3669999999999999e-001 -2.3414085059798371e+001 -4.5492836140601462e+001 1.5709508526789993e+001 0 -7 -5
6370 618 9 8.4900000000000003e-002 -2.3173493842980822e+001 -4.5506012758527362e+001 9.0101637394553400e+000 0 -8 -4
3715 361 14 4.0000000000000001e-002 -2.1571312369139481e+001 -4.5880455316534459e+001 2.1641871909678002e+001 0 -7 -5
10172 984 13 2.0000000000000000e-002 -1.5388237647207632e+001 -4.4481588553198392e+001 1.3281387811480215e+001 0 -4 -3
3714 361 13 2.0000000000000000e-002 -2.3426092861063957e+001 -4.6310349685064352e+001 1.8335751813523974e+001 0 -7 -5
10175 984 3 -3.2719999999999999e-001 -1.6360568504784272e+001 -4.5314287285776651e+001 1.5778672320001260e+001 0 -4 -3
6372 618 11 -4.1939999999999998e-003 -2.1167717347087429e+001 -4.6579680678257461e+001 9.3794859104480111e+000 0 -8 -4
6373 618 10 3.2989999999999998e-002 -2.1023911890825374e+001 -4.6724653891954269e+001 1.2616110745105413e+001 0 -8 -4
6374 618 10 3.2989999999999998e-002 -1.8079022901136973e+001 -4.6564753280103844e+001 8.2218475177177481e+000 0 -8 -4
10178 984 13 2.0000000000000000e-002 -1.5485946776802706e+001 -4.6384197868106050e+001 1.5068795710301341e+001 0 -4 -3
6377 619 9 8.4900000000000003e-002 -2.3289713349049546e+001 -4.7592464927317067e+001 8.3732813234515504e+000 0 -8 -4
3824 367 12 3.2989999999999998e-002 -1.7069402276721732e+001 -3.7257282974345230e+001 1.6344527627696404e+001 0 -7 -5
3823 367 13 2.0000000000000000e-002 -1.9171983932625274e+001 -3.7470349703005539e+001 1.8853397923037932e+001 0 -7 -5
2622 252 13 2.0000000000000000e-002 -2.0764302969485044e+001 -3.7211648289857173e+001 2.2710356322765772e+001 0 -7 -5
3825 367 12 3.2989999999999998e-002 -2.1766878382380789e+001 -3.7622124742808410e+001 1.6962030898835764e+001 0 -7 -5
1388 132 12 3.2989999999999998e-002 -2.5706742510989891e+001 -3.8309021743922820e+001 1.8238655398926536e+001 0 -6 -5
6342 614 9 8.4900000000000003e-002 -2.0354270162742090e+001 -3.7304993502409594e+001 1.0379152352631035e+001 0 -8 -4
10179 984 9 8.4900000000000003e-002 -1.3087915885741008e+001 -4.6714243804070144e+001 1.1791830611694223e+001 0 -4 -3
3717 361 3 -3.2719999999999999e-001 -2.4085097454421032e+001 -4.7354204515934413e+001 1.7654284683716494e+001 0 -7 -5
6339 613 10 3.2989999999999998e-002 -2.3215935523773119e+001 -3.6526225558957094e+001 1.2735326507687521e+001 0 -8 -4
10181 984 15 -2.3669999999999999e-001 -1.6767478922620569e+001 -4.7237338976693920e+001 1.7137791161651695e+001 0 -4 -3
7461 722 15 -2.3669999999999999e-001 -3.2437523206696632e+001 -3.5983766083702882e+001 3.3507720027437173e+000 0 -7 -4